
     Program PWSCF v.6.7MaX starts on 25Jan2023 at  6: 5:48 

     This program is part of the open-source Quantum ESPRESSO suite
     for quantum simulation of materials; please cite
         "P. Giannozzi et al., J. Phys.:Condens. Matter 21 395502 (2009);
         "P. Giannozzi et al., J. Phys.:Condens. Matter 29 465901 (2017);
          URL http://www.quantum-espresso.org", 
     in publications or presentations arising from this work. More details at
     http://www.quantum-espresso.org/quote

     Parallel version (MPI), running on    24 processors

     MPI processes distributed on     1 nodes
     R & G space division:  proc/nbgrp/npool/nimage =      24
     Reading input from scale_2dab-05.in

     Current dimensions of program PWSCF are:
     Max number of different atomic species (ntypx) = 10
     Max number of k-points (npk) =  40000
     Max angular momentum in pseudopotentials (lmaxx) =  3
     Message from routine read_pp_mesh:
     mesh size missing, using the one in header
     file Fe.pbe-spn-kjpaw_psl.0.2.1.UPF: wavefunction(s)  3D renormalized
     file O.pbe-n-kjpaw_psl.0.1.UPF: wavefunction(s)  2P renormalized

     Subspace diagonalization in iterative solution of the eigenvalue problem:
     a serial algorithm will be used


     Parallelization info
     --------------------
     sticks:   dense  smooth     PW     G-vecs:    dense   smooth      PW
     Min         912     338     91                59470    13411    1881
     Max         913     340     92                59472    13412    1884
     Sum       21895    8121   2193              1427303   321883   45159



     bravais-lattice index     =            0
     lattice parameter (alat)  =      20.6483  a.u.
     unit-cell volume          =    2381.7944 (a.u.)^3
     number of atoms/cell      =           25
     number of atomic types    =            4
     number of electrons       =       189.00
     number of Kohn-Sham states=          114
     kinetic-energy cutoff     =     100.0000  Ry
     charge density cutoff     =    1080.0000  Ry
     scf convergence threshold =      2.0E-10
     mixing beta               =       0.4000
     number of iterations used =            8  plain     mixing
     Exchange-correlation= PBE
                           (   1   4   3   4   0   0   0)

     celldm(1)=  20.648310  celldm(2)=   0.000000  celldm(3)=   0.000000
     celldm(4)=   0.000000  celldm(5)=   0.000000  celldm(6)=   0.000000

     crystal axes: (cart. coord. in units of alat)
               a(1) = (   1.000000   0.000000   0.000000 )  
               a(2) = (   0.000000   0.597590   0.000000 )  
               a(3) = (   0.000000   0.000000   0.452739 )  

     reciprocal axes: (cart. coord. in units 2 pi/alat)
               b(1) = (  1.000000  0.000000  0.000000 )  
               b(2) = (  0.000000  1.673388  0.000000 )  
               b(3) = (  0.000000  0.000000  2.208780 )  


     PseudoPot. # 1 for Fe read from file:
     /opt/QEpot/SSSP_precision_pseudos/Fe.pbe-spn-kjpaw_psl.0.2.1.UPF
     MD5 check sum: e86618425769142926afa95317d90200
     Pseudo is Projector augmented-wave + core cor, Zval = 16.0
     Generated using "atomic" code by A. Dal Corso  v.5.0.99 svn rev. 10869
     Shape of augmentation charge: PSQ
     Using radial grid of 1191 points,  6 beta functions with: 
                l(1) =   0
                l(2) =   0
                l(3) =   1
                l(4) =   1
                l(5) =   2
                l(6) =   2
     Q(r) pseudized with 0 coefficients 


     PseudoPot. # 2 for Na read from file:
     /opt/QEpot/SSSP_precision_pseudos/Na_ONCV_PBE-1.0.oncvpsp.upf
     MD5 check sum: 24a298df0a6742ae313db96548fdb2a4
     Pseudo is Norm-conserving, Zval =  9.0
     Generated using ONCVPSP code by D. R. Hamann
     Using radial grid of 1992 points,  4 beta functions with: 
                l(1) =   0
                l(2) =   0
                l(3) =   1
                l(4) =   1

     PseudoPot. # 3 for O  read from file:
     /opt/QEpot/SSSP_precision_pseudos/O.pbe-n-kjpaw_psl.0.1.UPF
     MD5 check sum: 0234752ac141de4415c5fc33072bef88
     Pseudo is Projector augmented-wave + core cor, Zval =  6.0
     Generated using "atomic" code by A. Dal Corso  v.5.0.99 svn rev. 10869
     Shape of augmentation charge: BESSEL
     Using radial grid of 1095 points,  4 beta functions with: 
                l(1) =   0
                l(2) =   0
                l(3) =   1
                l(4) =   1
     Q(r) pseudized with 0 coefficients 


     PseudoPot. # 4 for P  read from file:
     /opt/QEpot/SSSP_precision_pseudos/P.pbe-n-rrkjus_psl.1.0.0.UPF
     MD5 check sum: 8b930f418f0a4573dca56cd030ffe088
     Pseudo is Ultrasoft + core correction, Zval =  5.0
     Generated using "atomic" code by A. Dal Corso  v.5.1
     Using radial grid of 1147 points,  6 beta functions with: 
                l(1) =   0
                l(2) =   0
                l(3) =   1
                l(4) =   1
                l(5) =   2
                l(6) =   2
     Q(r) pseudized with 0 coefficients 


     atomic species   valence    mass     pseudopotential
        Fe            16.00    55.84500     Fe( 1.00)
        Na             9.00    22.98977     Na( 1.00)
        O              6.00    15.99940     O ( 1.00)
        P              5.00    30.97376     P ( 1.00)

     Starting magnetic structure 
     atomic species   magnetization
        Fe           0.312
        Na           0.000
        O            0.000
        P            0.000

     No symmetry found


                                    s                        frac. trans.

      isym =  1     identity                                     

 cryst.   s( 1) = (     1          0          0      )
                  (     0          1          0      )
                  (     0          0          1      )

 cart.    s( 1) = (  1.0000000  0.0000000  0.0000000 )
                  (  0.0000000  1.0000000  0.0000000 )
                  (  0.0000000  0.0000000  1.0000000 )


   Cartesian axes

     site n.     atom                  positions (alat units)
         1           Na  tau(   1) = (   0.9884170   0.5519173   0.4130307  )
         2           Fe  tau(   2) = (   0.2939190   0.4594911   0.4090312  )
         3           Fe  tau(   3) = (   0.2177320   0.1644388   0.2165104  )
         4           Fe  tau(   4) = (   0.7086600   0.1410366   0.0304412  )
         5           Fe  tau(   5) = (   0.7798900   0.4274680   0.2159989  )
         6           P   tau(   6) = (   0.1012260   0.4335879   0.1669161  )
         7           P   tau(   7) = (   0.3924930   0.1530332   0.4160559  )
         8           P   tau(   8) = (   0.9016400   0.1713673   0.2725830  )
         9           P   tau(   9) = (   0.6079410   0.4475058   0.0185070  )
        10           O   tau(  10) = (   0.1416670   0.4473648   0.3021124  )
        11           O   tau(  11) = (   0.3552620   0.1488776   0.0993290  )
        12           O   tau(  12) = (   0.8585950   0.1609824   0.1377294  )
        13           O   tau(  13) = (   0.6446380   0.4498639   0.3352986  )
        14           O   tau(  14) = (   0.4614060   0.4495209   0.0356749  )
        15           O   tau(  15) = (   0.0448410   0.1302746   0.2889088  )
        16           O   tau(  16) = (   0.5395180   0.1519767   0.4014012  )
        17           O   tau(  17) = (   0.9559730   0.4694917   0.1515456  )
        18           O   tau(  18) = (   0.1791430   0.5315987   0.0862748  )
        19           O   tau(  19) = (   0.3275030   0.0391284   0.3419127  )
        20           O   tau(  20) = (   0.8731620   0.3072993   0.3252415  )
        21           O   tau(  21) = (   0.6721330   0.3295756   0.0882048  )
        22           O   tau(  22) = (   0.8183970   0.0746061   0.3503762  )
        23           O   tau(  23) = (   0.6754720   0.5598432   0.0923179  )
        24           O   tau(  24) = (   0.1341870   0.2984304   0.1169446  )
        25           O   tau(  25) = (   0.3262540   0.2700252   0.3467597  )

   Crystallographic axes

     site n.     atom                  positions (cryst. coord.)
         1           Na  tau(   1) = (  0.9884170  0.9235720  0.9122940  )
         2           Fe  tau(   2) = (  0.2939190  0.7689070  0.9034600  )
         3           Fe  tau(   3) = (  0.2177320  0.2751700  0.4782240  )
         4           Fe  tau(   4) = (  0.7086600  0.2360090  0.0672380  )
         5           Fe  tau(   5) = (  0.7798900  0.7153200  0.4770940  )
         6           P   tau(   6) = (  0.1012260  0.7255610  0.3686810  )
         7           P   tau(   7) = (  0.3924930  0.2560840  0.9189760  )
         8           P   tau(   8) = (  0.9016400  0.2867640  0.6020760  )
         9           P   tau(   9) = (  0.6079410  0.7488510  0.0408780  )
        10           O   tau(  10) = (  0.1416670  0.7486150  0.6673000  )
        11           O   tau(  11) = (  0.3552620  0.2491300  0.2193960  )
        12           O   tau(  12) = (  0.8585950  0.2693860  0.3042140  )
        13           O   tau(  13) = (  0.6446380  0.7527970  0.7406010  )
        14           O   tau(  14) = (  0.4614060  0.7522230  0.0787980  )
        15           O   tau(  15) = (  0.0448410  0.2180000  0.6381360  )
        16           O   tau(  16) = (  0.5395180  0.2543160  0.8866070  )
        17           O   tau(  17) = (  0.9559730  0.7856420  0.3347310  )
        18           O   tau(  18) = (  0.1791430  0.8895710  0.1905620  )
        19           O   tau(  19) = (  0.3275030  0.0654770  0.7552100  )
        20           O   tau(  20) = (  0.8731620  0.5142310  0.7183870  )
        21           O   tau(  21) = (  0.6721330  0.5515080  0.1948250  )
        22           O   tau(  22) = (  0.8183970  0.1248450  0.7739040  )
        23           O   tau(  23) = (  0.6754720  0.9368350  0.2039100  )
        24           O   tau(  24) = (  0.1341870  0.4993900  0.2583050  )
        25           O   tau(  25) = (  0.3262540  0.4518570  0.7659160  )

     number of k points=   158  Marzari-Vanderbilt smearing, width (Ry)=  0.0073
                       cart. coord. in units 2pi/alat
        k(    1) = (   0.0000000   0.0000000   0.0000000), wk =   0.0031746
        k(    2) = (   0.0000000   0.0000000   0.2454200), wk =   0.0063492
        k(    3) = (   0.0000000   0.0000000   0.4908401), wk =   0.0063492
        k(    4) = (   0.0000000   0.0000000   0.7362601), wk =   0.0063492
        k(    5) = (   0.0000000   0.0000000   0.9816801), wk =   0.0063492
        k(    6) = (   0.0000000   0.2390555   0.0000000), wk =   0.0063492
        k(    7) = (   0.0000000   0.2390555   0.2454200), wk =   0.0063492
        k(    8) = (   0.0000000   0.2390555   0.4908401), wk =   0.0063492
        k(    9) = (   0.0000000   0.2390555   0.7362601), wk =   0.0063492
        k(   10) = (   0.0000000   0.2390555   0.9816801), wk =   0.0063492
        k(   11) = (   0.0000000   0.4781110   0.0000000), wk =   0.0063492
        k(   12) = (   0.0000000   0.4781110   0.2454200), wk =   0.0063492
        k(   13) = (   0.0000000   0.4781110   0.4908401), wk =   0.0063492
        k(   14) = (   0.0000000   0.4781110   0.7362601), wk =   0.0063492
        k(   15) = (   0.0000000   0.4781110   0.9816801), wk =   0.0063492
        k(   16) = (   0.0000000   0.7171664   0.0000000), wk =   0.0063492
        k(   17) = (   0.0000000   0.7171664   0.2454200), wk =   0.0063492
        k(   18) = (   0.0000000   0.7171664   0.4908401), wk =   0.0063492
        k(   19) = (   0.0000000   0.7171664   0.7362601), wk =   0.0063492
        k(   20) = (   0.0000000   0.7171664   0.9816801), wk =   0.0063492
        k(   21) = (   0.2000000   0.0000000   0.0000000), wk =   0.0063492
        k(   22) = (   0.2000000   0.0000000   0.2454200), wk =   0.0063492
        k(   23) = (   0.2000000   0.0000000   0.4908401), wk =   0.0063492
        k(   24) = (   0.2000000   0.0000000   0.7362601), wk =   0.0063492
        k(   25) = (   0.2000000   0.0000000   0.9816801), wk =   0.0063492
        k(   26) = (   0.2000000   0.2390555   0.0000000), wk =   0.0063492
        k(   27) = (   0.2000000   0.2390555   0.2454200), wk =   0.0063492
        k(   28) = (   0.2000000   0.2390555   0.4908401), wk =   0.0063492
        k(   29) = (   0.2000000   0.2390555   0.7362601), wk =   0.0063492
        k(   30) = (   0.2000000   0.2390555   0.9816801), wk =   0.0063492
        k(   31) = (   0.2000000   0.4781110   0.0000000), wk =   0.0063492
        k(   32) = (   0.2000000   0.4781110   0.2454200), wk =   0.0063492
        k(   33) = (   0.2000000   0.4781110   0.4908401), wk =   0.0063492
        k(   34) = (   0.2000000   0.4781110   0.7362601), wk =   0.0063492
        k(   35) = (   0.2000000   0.4781110   0.9816801), wk =   0.0063492
        k(   36) = (   0.2000000   0.7171664   0.0000000), wk =   0.0063492
        k(   37) = (   0.2000000   0.7171664   0.2454200), wk =   0.0063492
        k(   38) = (   0.2000000   0.7171664   0.4908401), wk =   0.0063492
        k(   39) = (   0.2000000   0.7171664   0.7362601), wk =   0.0063492
        k(   40) = (   0.2000000   0.7171664   0.9816801), wk =   0.0063492
        k(   41) = (   0.4000000   0.0000000   0.0000000), wk =   0.0063492
        k(   42) = (   0.4000000   0.0000000   0.2454200), wk =   0.0063492
        k(   43) = (   0.4000000   0.0000000   0.4908401), wk =   0.0063492
        k(   44) = (   0.4000000   0.0000000   0.7362601), wk =   0.0063492
        k(   45) = (   0.4000000   0.0000000   0.9816801), wk =   0.0063492
        k(   46) = (   0.4000000   0.2390555   0.0000000), wk =   0.0063492
        k(   47) = (   0.4000000   0.2390555   0.2454200), wk =   0.0063492
        k(   48) = (   0.4000000   0.2390555   0.4908401), wk =   0.0063492
        k(   49) = (   0.4000000   0.2390555   0.7362601), wk =   0.0063492
        k(   50) = (   0.4000000   0.2390555   0.9816801), wk =   0.0063492
        k(   51) = (   0.4000000   0.4781110   0.0000000), wk =   0.0063492
        k(   52) = (   0.4000000   0.4781110   0.2454200), wk =   0.0063492
        k(   53) = (   0.4000000   0.4781110   0.4908401), wk =   0.0063492
        k(   54) = (   0.4000000   0.4781110   0.7362601), wk =   0.0063492
        k(   55) = (   0.4000000   0.4781110   0.9816801), wk =   0.0063492
        k(   56) = (   0.4000000   0.7171664   0.0000000), wk =   0.0063492
        k(   57) = (   0.4000000   0.7171664   0.2454200), wk =   0.0063492
        k(   58) = (   0.4000000   0.7171664   0.4908401), wk =   0.0063492
        k(   59) = (   0.4000000   0.7171664   0.7362601), wk =   0.0063492
        k(   60) = (   0.4000000   0.7171664   0.9816801), wk =   0.0063492
        k(   61) = (   0.0000000  -0.2390555   0.2454200), wk =   0.0063492
        k(   62) = (   0.0000000  -0.2390555   0.4908401), wk =   0.0063492
        k(   63) = (   0.0000000  -0.2390555   0.7362601), wk =   0.0063492
        k(   64) = (   0.0000000  -0.2390555   0.9816801), wk =   0.0063492
        k(   65) = (   0.0000000  -0.4781110   0.2454200), wk =   0.0063492
        k(   66) = (   0.0000000  -0.4781110   0.4908401), wk =   0.0063492
        k(   67) = (   0.0000000  -0.4781110   0.7362601), wk =   0.0063492
        k(   68) = (   0.0000000  -0.4781110   0.9816801), wk =   0.0063492
        k(   69) = (   0.0000000  -0.7171664   0.2454200), wk =   0.0063492
        k(   70) = (   0.0000000  -0.7171664   0.4908401), wk =   0.0063492
        k(   71) = (   0.0000000  -0.7171664   0.7362601), wk =   0.0063492
        k(   72) = (   0.0000000  -0.7171664   0.9816801), wk =   0.0063492
        k(   73) = (  -0.2000000   0.0000000   0.2454200), wk =   0.0063492
        k(   74) = (  -0.2000000   0.0000000   0.4908401), wk =   0.0063492
        k(   75) = (  -0.2000000   0.0000000   0.7362601), wk =   0.0063492
        k(   76) = (  -0.2000000   0.0000000   0.9816801), wk =   0.0063492
        k(   77) = (  -0.2000000   0.2390555   0.0000000), wk =   0.0063492
        k(   78) = (  -0.2000000  -0.2390555   0.2454200), wk =   0.0063492
        k(   79) = (  -0.2000000   0.2390555  -0.2454200), wk =   0.0063492
        k(   80) = (   0.2000000  -0.2390555  -0.2454200), wk =   0.0063492
        k(   81) = (  -0.2000000  -0.2390555   0.4908401), wk =   0.0063492
        k(   82) = (  -0.2000000   0.2390555  -0.4908401), wk =   0.0063492
        k(   83) = (   0.2000000  -0.2390555  -0.4908401), wk =   0.0063492
        k(   84) = (  -0.2000000  -0.2390555   0.7362601), wk =   0.0063492
        k(   85) = (  -0.2000000   0.2390555  -0.7362601), wk =   0.0063492
        k(   86) = (   0.2000000  -0.2390555  -0.7362601), wk =   0.0063492
        k(   87) = (  -0.2000000  -0.2390555   0.9816801), wk =   0.0063492
        k(   88) = (  -0.2000000   0.2390555  -0.9816801), wk =   0.0063492
        k(   89) = (   0.2000000  -0.2390555  -0.9816801), wk =   0.0063492
        k(   90) = (  -0.2000000   0.4781110   0.0000000), wk =   0.0063492
        k(   91) = (  -0.2000000  -0.4781110   0.2454200), wk =   0.0063492
        k(   92) = (  -0.2000000   0.4781110  -0.2454200), wk =   0.0063492
        k(   93) = (   0.2000000  -0.4781110  -0.2454200), wk =   0.0063492
        k(   94) = (  -0.2000000  -0.4781110   0.4908401), wk =   0.0063492
        k(   95) = (  -0.2000000   0.4781110  -0.4908401), wk =   0.0063492
        k(   96) = (   0.2000000  -0.4781110  -0.4908401), wk =   0.0063492
        k(   97) = (  -0.2000000  -0.4781110   0.7362601), wk =   0.0063492
        k(   98) = (  -0.2000000   0.4781110  -0.7362601), wk =   0.0063492
        k(   99) = (   0.2000000  -0.4781110  -0.7362601), wk =   0.0063492
        k(  100) = (  -0.2000000  -0.4781110   0.9816801), wk =   0.0063492
        k(  101) = (  -0.2000000   0.4781110  -0.9816801), wk =   0.0063492
        k(  102) = (   0.2000000  -0.4781110  -0.9816801), wk =   0.0063492
        k(  103) = (  -0.2000000   0.7171664   0.0000000), wk =   0.0063492
        k(  104) = (  -0.2000000  -0.7171664   0.2454200), wk =   0.0063492
        k(  105) = (  -0.2000000   0.7171664  -0.2454200), wk =   0.0063492
        k(  106) = (   0.2000000  -0.7171664  -0.2454200), wk =   0.0063492
        k(  107) = (  -0.2000000  -0.7171664   0.4908401), wk =   0.0063492
        k(  108) = (  -0.2000000   0.7171664  -0.4908401), wk =   0.0063492
        k(  109) = (   0.2000000  -0.7171664  -0.4908401), wk =   0.0063492
        k(  110) = (  -0.2000000  -0.7171664   0.7362601), wk =   0.0063492
        k(  111) = (  -0.2000000   0.7171664  -0.7362601), wk =   0.0063492
        k(  112) = (   0.2000000  -0.7171664  -0.7362601), wk =   0.0063492
        k(  113) = (  -0.2000000  -0.7171664   0.9816801), wk =   0.0063492
        k(  114) = (  -0.2000000   0.7171664  -0.9816801), wk =   0.0063492
        k(  115) = (   0.2000000  -0.7171664  -0.9816801), wk =   0.0063492
        k(  116) = (  -0.4000000   0.0000000   0.2454200), wk =   0.0063492
        k(  117) = (  -0.4000000   0.0000000   0.4908401), wk =   0.0063492
        k(  118) = (  -0.4000000   0.0000000   0.7362601), wk =   0.0063492
        k(  119) = (  -0.4000000   0.0000000   0.9816801), wk =   0.0063492
        k(  120) = (  -0.4000000   0.2390555   0.0000000), wk =   0.0063492
        k(  121) = (  -0.4000000  -0.2390555   0.2454200), wk =   0.0063492
        k(  122) = (  -0.4000000   0.2390555  -0.2454200), wk =   0.0063492
        k(  123) = (   0.4000000  -0.2390555  -0.2454200), wk =   0.0063492
        k(  124) = (  -0.4000000  -0.2390555   0.4908401), wk =   0.0063492
        k(  125) = (  -0.4000000   0.2390555  -0.4908401), wk =   0.0063492
        k(  126) = (   0.4000000  -0.2390555  -0.4908401), wk =   0.0063492
        k(  127) = (  -0.4000000  -0.2390555   0.7362601), wk =   0.0063492
        k(  128) = (  -0.4000000   0.2390555  -0.7362601), wk =   0.0063492
        k(  129) = (   0.4000000  -0.2390555  -0.7362601), wk =   0.0063492
        k(  130) = (  -0.4000000  -0.2390555   0.9816801), wk =   0.0063492
        k(  131) = (  -0.4000000   0.2390555  -0.9816801), wk =   0.0063492
        k(  132) = (   0.4000000  -0.2390555  -0.9816801), wk =   0.0063492
        k(  133) = (  -0.4000000   0.4781110   0.0000000), wk =   0.0063492
        k(  134) = (  -0.4000000  -0.4781110   0.2454200), wk =   0.0063492
        k(  135) = (  -0.4000000   0.4781110  -0.2454200), wk =   0.0063492
        k(  136) = (   0.4000000  -0.4781110  -0.2454200), wk =   0.0063492
        k(  137) = (  -0.4000000  -0.4781110   0.4908401), wk =   0.0063492
        k(  138) = (  -0.4000000   0.4781110  -0.4908401), wk =   0.0063492
        k(  139) = (   0.4000000  -0.4781110  -0.4908401), wk =   0.0063492
        k(  140) = (  -0.4000000  -0.4781110   0.7362601), wk =   0.0063492
        k(  141) = (  -0.4000000   0.4781110  -0.7362601), wk =   0.0063492
        k(  142) = (   0.4000000  -0.4781110  -0.7362601), wk =   0.0063492
        k(  143) = (  -0.4000000  -0.4781110   0.9816801), wk =   0.0063492
        k(  144) = (  -0.4000000   0.4781110  -0.9816801), wk =   0.0063492
        k(  145) = (   0.4000000  -0.4781110  -0.9816801), wk =   0.0063492
        k(  146) = (  -0.4000000   0.7171664   0.0000000), wk =   0.0063492
        k(  147) = (  -0.4000000  -0.7171664   0.2454200), wk =   0.0063492
        k(  148) = (  -0.4000000   0.7171664  -0.2454200), wk =   0.0063492
        k(  149) = (   0.4000000  -0.7171664  -0.2454200), wk =   0.0063492
        k(  150) = (  -0.4000000  -0.7171664   0.4908401), wk =   0.0063492
        k(  151) = (  -0.4000000   0.7171664  -0.4908401), wk =   0.0063492
        k(  152) = (   0.4000000  -0.7171664  -0.4908401), wk =   0.0063492
        k(  153) = (  -0.4000000  -0.7171664   0.7362601), wk =   0.0063492
        k(  154) = (  -0.4000000   0.7171664  -0.7362601), wk =   0.0063492
        k(  155) = (   0.4000000  -0.7171664  -0.7362601), wk =   0.0063492
        k(  156) = (  -0.4000000  -0.7171664   0.9816801), wk =   0.0063492
        k(  157) = (  -0.4000000   0.7171664  -0.9816801), wk =   0.0063492
        k(  158) = (   0.4000000  -0.7171664  -0.9816801), wk =   0.0063492

                       cryst. coord.
        k(    1) = (   0.0000000   0.0000000   0.0000000), wk =   0.0031746
        k(    2) = (   0.0000000   0.0000000   0.1111111), wk =   0.0063492
        k(    3) = (   0.0000000   0.0000000   0.2222222), wk =   0.0063492
        k(    4) = (   0.0000000   0.0000000   0.3333333), wk =   0.0063492
        k(    5) = (   0.0000000   0.0000000   0.4444444), wk =   0.0063492
        k(    6) = (   0.0000000   0.1428571   0.0000000), wk =   0.0063492
        k(    7) = (   0.0000000   0.1428571   0.1111111), wk =   0.0063492
        k(    8) = (   0.0000000   0.1428571   0.2222222), wk =   0.0063492
        k(    9) = (   0.0000000   0.1428571   0.3333333), wk =   0.0063492
        k(   10) = (   0.0000000   0.1428571   0.4444444), wk =   0.0063492
        k(   11) = (   0.0000000   0.2857143   0.0000000), wk =   0.0063492
        k(   12) = (   0.0000000   0.2857143   0.1111111), wk =   0.0063492
        k(   13) = (   0.0000000   0.2857143   0.2222222), wk =   0.0063492
        k(   14) = (   0.0000000   0.2857143   0.3333333), wk =   0.0063492
        k(   15) = (   0.0000000   0.2857143   0.4444444), wk =   0.0063492
        k(   16) = (   0.0000000   0.4285714   0.0000000), wk =   0.0063492
        k(   17) = (   0.0000000   0.4285714   0.1111111), wk =   0.0063492
        k(   18) = (   0.0000000   0.4285714   0.2222222), wk =   0.0063492
        k(   19) = (   0.0000000   0.4285714   0.3333333), wk =   0.0063492
        k(   20) = (   0.0000000   0.4285714   0.4444444), wk =   0.0063492
        k(   21) = (   0.2000000   0.0000000   0.0000000), wk =   0.0063492
        k(   22) = (   0.2000000   0.0000000   0.1111111), wk =   0.0063492
        k(   23) = (   0.2000000   0.0000000   0.2222222), wk =   0.0063492
        k(   24) = (   0.2000000   0.0000000   0.3333333), wk =   0.0063492
        k(   25) = (   0.2000000   0.0000000   0.4444444), wk =   0.0063492
        k(   26) = (   0.2000000   0.1428571   0.0000000), wk =   0.0063492
        k(   27) = (   0.2000000   0.1428571   0.1111111), wk =   0.0063492
        k(   28) = (   0.2000000   0.1428571   0.2222222), wk =   0.0063492
        k(   29) = (   0.2000000   0.1428571   0.3333333), wk =   0.0063492
        k(   30) = (   0.2000000   0.1428571   0.4444444), wk =   0.0063492
        k(   31) = (   0.2000000   0.2857143   0.0000000), wk =   0.0063492
        k(   32) = (   0.2000000   0.2857143   0.1111111), wk =   0.0063492
        k(   33) = (   0.2000000   0.2857143   0.2222222), wk =   0.0063492
        k(   34) = (   0.2000000   0.2857143   0.3333333), wk =   0.0063492
        k(   35) = (   0.2000000   0.2857143   0.4444444), wk =   0.0063492
        k(   36) = (   0.2000000   0.4285714   0.0000000), wk =   0.0063492
        k(   37) = (   0.2000000   0.4285714   0.1111111), wk =   0.0063492
        k(   38) = (   0.2000000   0.4285714   0.2222222), wk =   0.0063492
        k(   39) = (   0.2000000   0.4285714   0.3333333), wk =   0.0063492
        k(   40) = (   0.2000000   0.4285714   0.4444444), wk =   0.0063492
        k(   41) = (   0.4000000   0.0000000   0.0000000), wk =   0.0063492
        k(   42) = (   0.4000000   0.0000000   0.1111111), wk =   0.0063492
        k(   43) = (   0.4000000   0.0000000   0.2222222), wk =   0.0063492
        k(   44) = (   0.4000000   0.0000000   0.3333333), wk =   0.0063492
        k(   45) = (   0.4000000   0.0000000   0.4444444), wk =   0.0063492
        k(   46) = (   0.4000000   0.1428571   0.0000000), wk =   0.0063492
        k(   47) = (   0.4000000   0.1428571   0.1111111), wk =   0.0063492
        k(   48) = (   0.4000000   0.1428571   0.2222222), wk =   0.0063492
        k(   49) = (   0.4000000   0.1428571   0.3333333), wk =   0.0063492
        k(   50) = (   0.4000000   0.1428571   0.4444444), wk =   0.0063492
        k(   51) = (   0.4000000   0.2857143   0.0000000), wk =   0.0063492
        k(   52) = (   0.4000000   0.2857143   0.1111111), wk =   0.0063492
        k(   53) = (   0.4000000   0.2857143   0.2222222), wk =   0.0063492
        k(   54) = (   0.4000000   0.2857143   0.3333333), wk =   0.0063492
        k(   55) = (   0.4000000   0.2857143   0.4444444), wk =   0.0063492
        k(   56) = (   0.4000000   0.4285714   0.0000000), wk =   0.0063492
        k(   57) = (   0.4000000   0.4285714   0.1111111), wk =   0.0063492
        k(   58) = (   0.4000000   0.4285714   0.2222222), wk =   0.0063492
        k(   59) = (   0.4000000   0.4285714   0.3333333), wk =   0.0063492
        k(   60) = (   0.4000000   0.4285714   0.4444444), wk =   0.0063492
        k(   61) = (   0.0000000  -0.1428571   0.1111111), wk =   0.0063492
        k(   62) = (   0.0000000  -0.1428571   0.2222222), wk =   0.0063492
        k(   63) = (   0.0000000  -0.1428571   0.3333333), wk =   0.0063492
        k(   64) = (   0.0000000  -0.1428571   0.4444444), wk =   0.0063492
        k(   65) = (   0.0000000  -0.2857143   0.1111111), wk =   0.0063492
        k(   66) = (   0.0000000  -0.2857143   0.2222222), wk =   0.0063492
        k(   67) = (   0.0000000  -0.2857143   0.3333333), wk =   0.0063492
        k(   68) = (   0.0000000  -0.2857143   0.4444444), wk =   0.0063492
        k(   69) = (   0.0000000  -0.4285714   0.1111111), wk =   0.0063492
        k(   70) = (   0.0000000  -0.4285714   0.2222222), wk =   0.0063492
        k(   71) = (   0.0000000  -0.4285714   0.3333333), wk =   0.0063492
        k(   72) = (   0.0000000  -0.4285714   0.4444444), wk =   0.0063492
        k(   73) = (  -0.2000000   0.0000000   0.1111111), wk =   0.0063492
        k(   74) = (  -0.2000000   0.0000000   0.2222222), wk =   0.0063492
        k(   75) = (  -0.2000000   0.0000000   0.3333333), wk =   0.0063492
        k(   76) = (  -0.2000000   0.0000000   0.4444444), wk =   0.0063492
        k(   77) = (  -0.2000000   0.1428571   0.0000000), wk =   0.0063492
        k(   78) = (  -0.2000000  -0.1428571   0.1111111), wk =   0.0063492
        k(   79) = (  -0.2000000   0.1428571  -0.1111111), wk =   0.0063492
        k(   80) = (   0.2000000  -0.1428571  -0.1111111), wk =   0.0063492
        k(   81) = (  -0.2000000  -0.1428571   0.2222222), wk =   0.0063492
        k(   82) = (  -0.2000000   0.1428571  -0.2222222), wk =   0.0063492
        k(   83) = (   0.2000000  -0.1428571  -0.2222222), wk =   0.0063492
        k(   84) = (  -0.2000000  -0.1428571   0.3333333), wk =   0.0063492
        k(   85) = (  -0.2000000   0.1428571  -0.3333333), wk =   0.0063492
        k(   86) = (   0.2000000  -0.1428571  -0.3333333), wk =   0.0063492
        k(   87) = (  -0.2000000  -0.1428571   0.4444444), wk =   0.0063492
        k(   88) = (  -0.2000000   0.1428571  -0.4444444), wk =   0.0063492
        k(   89) = (   0.2000000  -0.1428571  -0.4444444), wk =   0.0063492
        k(   90) = (  -0.2000000   0.2857143   0.0000000), wk =   0.0063492
        k(   91) = (  -0.2000000  -0.2857143   0.1111111), wk =   0.0063492
        k(   92) = (  -0.2000000   0.2857143  -0.1111111), wk =   0.0063492
        k(   93) = (   0.2000000  -0.2857143  -0.1111111), wk =   0.0063492
        k(   94) = (  -0.2000000  -0.2857143   0.2222222), wk =   0.0063492
        k(   95) = (  -0.2000000   0.2857143  -0.2222222), wk =   0.0063492
        k(   96) = (   0.2000000  -0.2857143  -0.2222222), wk =   0.0063492
        k(   97) = (  -0.2000000  -0.2857143   0.3333333), wk =   0.0063492
        k(   98) = (  -0.2000000   0.2857143  -0.3333333), wk =   0.0063492
        k(   99) = (   0.2000000  -0.2857143  -0.3333333), wk =   0.0063492
        k(  100) = (  -0.2000000  -0.2857143   0.4444444), wk =   0.0063492
        k(  101) = (  -0.2000000   0.2857143  -0.4444444), wk =   0.0063492
        k(  102) = (   0.2000000  -0.2857143  -0.4444444), wk =   0.0063492
        k(  103) = (  -0.2000000   0.4285714   0.0000000), wk =   0.0063492
        k(  104) = (  -0.2000000  -0.4285714   0.1111111), wk =   0.0063492
        k(  105) = (  -0.2000000   0.4285714  -0.1111111), wk =   0.0063492
        k(  106) = (   0.2000000  -0.4285714  -0.1111111), wk =   0.0063492
        k(  107) = (  -0.2000000  -0.4285714   0.2222222), wk =   0.0063492
        k(  108) = (  -0.2000000   0.4285714  -0.2222222), wk =   0.0063492
        k(  109) = (   0.2000000  -0.4285714  -0.2222222), wk =   0.0063492
        k(  110) = (  -0.2000000  -0.4285714   0.3333333), wk =   0.0063492
        k(  111) = (  -0.2000000   0.4285714  -0.3333333), wk =   0.0063492
        k(  112) = (   0.2000000  -0.4285714  -0.3333333), wk =   0.0063492
        k(  113) = (  -0.2000000  -0.4285714   0.4444444), wk =   0.0063492
        k(  114) = (  -0.2000000   0.4285714  -0.4444444), wk =   0.0063492
        k(  115) = (   0.2000000  -0.4285714  -0.4444444), wk =   0.0063492
        k(  116) = (  -0.4000000   0.0000000   0.1111111), wk =   0.0063492
        k(  117) = (  -0.4000000   0.0000000   0.2222222), wk =   0.0063492
        k(  118) = (  -0.4000000   0.0000000   0.3333333), wk =   0.0063492
        k(  119) = (  -0.4000000   0.0000000   0.4444444), wk =   0.0063492
        k(  120) = (  -0.4000000   0.1428571   0.0000000), wk =   0.0063492
        k(  121) = (  -0.4000000  -0.1428571   0.1111111), wk =   0.0063492
        k(  122) = (  -0.4000000   0.1428571  -0.1111111), wk =   0.0063492
        k(  123) = (   0.4000000  -0.1428571  -0.1111111), wk =   0.0063492
        k(  124) = (  -0.4000000  -0.1428571   0.2222222), wk =   0.0063492
        k(  125) = (  -0.4000000   0.1428571  -0.2222222), wk =   0.0063492
        k(  126) = (   0.4000000  -0.1428571  -0.2222222), wk =   0.0063492
        k(  127) = (  -0.4000000  -0.1428571   0.3333333), wk =   0.0063492
        k(  128) = (  -0.4000000   0.1428571  -0.3333333), wk =   0.0063492
        k(  129) = (   0.4000000  -0.1428571  -0.3333333), wk =   0.0063492
        k(  130) = (  -0.4000000  -0.1428571   0.4444444), wk =   0.0063492
        k(  131) = (  -0.4000000   0.1428571  -0.4444444), wk =   0.0063492
        k(  132) = (   0.4000000  -0.1428571  -0.4444444), wk =   0.0063492
        k(  133) = (  -0.4000000   0.2857143   0.0000000), wk =   0.0063492
        k(  134) = (  -0.4000000  -0.2857143   0.1111111), wk =   0.0063492
        k(  135) = (  -0.4000000   0.2857143  -0.1111111), wk =   0.0063492
        k(  136) = (   0.4000000  -0.2857143  -0.1111111), wk =   0.0063492
        k(  137) = (  -0.4000000  -0.2857143   0.2222222), wk =   0.0063492
        k(  138) = (  -0.4000000   0.2857143  -0.2222222), wk =   0.0063492
        k(  139) = (   0.4000000  -0.2857143  -0.2222222), wk =   0.0063492
        k(  140) = (  -0.4000000  -0.2857143   0.3333333), wk =   0.0063492
        k(  141) = (  -0.4000000   0.2857143  -0.3333333), wk =   0.0063492
        k(  142) = (   0.4000000  -0.2857143  -0.3333333), wk =   0.0063492
        k(  143) = (  -0.4000000  -0.2857143   0.4444444), wk =   0.0063492
        k(  144) = (  -0.4000000   0.2857143  -0.4444444), wk =   0.0063492
        k(  145) = (   0.4000000  -0.2857143  -0.4444444), wk =   0.0063492
        k(  146) = (  -0.4000000   0.4285714   0.0000000), wk =   0.0063492
        k(  147) = (  -0.4000000  -0.4285714   0.1111111), wk =   0.0063492
        k(  148) = (  -0.4000000   0.4285714  -0.1111111), wk =   0.0063492
        k(  149) = (   0.4000000  -0.4285714  -0.1111111), wk =   0.0063492
        k(  150) = (  -0.4000000  -0.4285714   0.2222222), wk =   0.0063492
        k(  151) = (  -0.4000000   0.4285714  -0.2222222), wk =   0.0063492
        k(  152) = (   0.4000000  -0.4285714  -0.2222222), wk =   0.0063492
        k(  153) = (  -0.4000000  -0.4285714   0.3333333), wk =   0.0063492
        k(  154) = (  -0.4000000   0.4285714  -0.3333333), wk =   0.0063492
        k(  155) = (   0.4000000  -0.4285714  -0.3333333), wk =   0.0063492
        k(  156) = (  -0.4000000  -0.4285714   0.4444444), wk =   0.0063492
        k(  157) = (  -0.4000000   0.4285714  -0.4444444), wk =   0.0063492
        k(  158) = (   0.4000000  -0.4285714  -0.4444444), wk =   0.0063492

     Dense  grid:  1427303 G-vectors     FFT dimensions: ( 216, 135, 100)

     Smooth grid:   321883 G-vectors     FFT dimensions: ( 135,  80,  60)

     Dynamical RAM for                 wfc:       2.91 MB

     Dynamical RAM for     wfc (w. buffer):     923.63 MB

     Dynamical RAM for           str. fact:       3.63 MB

     Dynamical RAM for           local pot:       0.00 MB

     Dynamical RAM for          nlocal pot:       7.16 MB

     Dynamical RAM for                qrad:      10.54 MB

     Dynamical RAM for          rho,v,vnew:      12.12 MB

     Dynamical RAM for               rhoin:       4.04 MB

     Dynamical RAM for            rho*nmix:      29.04 MB

     Dynamical RAM for           G-vectors:       3.51 MB

     Dynamical RAM for          h,s,v(r/c):       2.38 MB

     Dynamical RAM for          <psi|beta>:       0.49 MB

     Dynamical RAM for                 psi:       5.83 MB

     Dynamical RAM for                hpsi:       5.83 MB

     Dynamical RAM for                spsi:       5.83 MB

     Dynamical RAM for      wfcinit/wfcrot:       7.43 MB

     Dynamical RAM for           addusdens:     184.22 MB

     Dynamical RAM for          addusforce:     211.57 MB

     Dynamical RAM for         addusstress:     183.76 MB

     Estimated static dynamical RAM per process >    1004.88 MB

     Estimated max dynamical RAM per process >       1.19 GB

     Estimated total dynamical RAM >      28.51 GB

     Check: negative core charge=   -0.000003
     Generating pointlists ...
     new r_m :   0.0748 (alat units)  1.5446 (a.u.) for type    1
     new r_m :   0.0869 (alat units)  1.7952 (a.u.) for type    2
     new r_m :   0.0581 (alat units)  1.1995 (a.u.) for type    3
     new r_m :   0.0581 (alat units)  1.1995 (a.u.) for type    4

     Initial potential from superposition of free atoms

     starting charge  188.99132, renormalised to  189.00000
     Starting wfcs are  137 randomized atomic wfcs
     Checking if some PAW data can be deallocated... 
       PAW data deallocated on   20 nodes for type:  1
       PAW data deallocated on    8 nodes for type:  3

     total cpu time spent up to now is     1421.2 secs

     Self-consistent Calculation

     iteration #  1     ecut=   100.00 Ry     beta= 0.40
     Davidson diagonalization with overlap
     ethr =  1.00E-02,  avg # of iterations =  2.8

     negative rho (up, down):  0.000E+00 8.753E-05

     total cpu time spent up to now is     5260.0 secs

     total energy              =   -2123.68023358 Ry
     estimated scf accuracy    <       7.16484040 Ry

     total magnetization       =    19.00 Bohr mag/cell
     absolute magnetization    =    19.00 Bohr mag/cell

     iteration #  2     ecut=   100.00 Ry     beta= 0.40
     Davidson diagonalization with overlap
     ethr =  3.79E-03,  avg # of iterations =  2.0

     negative rho (up, down):  0.000E+00 4.188E-05

     total cpu time spent up to now is     8962.9 secs

     total energy              =   -2120.51904653 Ry
     estimated scf accuracy    <      41.52490326 Ry

     total magnetization       =     7.26 Bohr mag/cell
     absolute magnetization    =     8.73 Bohr mag/cell

     iteration #  3     ecut=   100.00 Ry     beta= 0.40
     Davidson diagonalization with overlap
     ethr =  3.79E-03,  avg # of iterations =  2.3

     negative rho (up, down):  0.000E+00 3.512E-05

     total cpu time spent up to now is    12140.9 secs

     total energy              =   -2123.46382263 Ry
     estimated scf accuracy    <      52.71738184 Ry

     total magnetization       =     5.01 Bohr mag/cell
     absolute magnetization    =     8.06 Bohr mag/cell

     iteration #  4     ecut=   100.00 Ry     beta= 0.40
     Davidson diagonalization with overlap
     ethr =  3.79E-03,  avg # of iterations =  1.6

     negative rho (up, down):  0.000E+00 4.237E-05

     total cpu time spent up to now is    15119.8 secs

     total energy              =   -2124.44876805 Ry
     estimated scf accuracy    <      37.41131964 Ry

     total magnetization       =     9.08 Bohr mag/cell
     absolute magnetization    =     9.49 Bohr mag/cell

     iteration #  5     ecut=   100.00 Ry     beta= 0.40
     Davidson diagonalization with overlap
     ethr =  3.79E-03,  avg # of iterations =  1.6

     negative rho (up, down):  0.000E+00 5.246E-05

     total cpu time spent up to now is    18106.5 secs

     total energy              =   -2125.51881157 Ry
     estimated scf accuracy    <       8.59197181 Ry

     total magnetization       =    15.22 Bohr mag/cell
     absolute magnetization    =    15.40 Bohr mag/cell

     iteration #  6     ecut=   100.00 Ry     beta= 0.40
     Davidson diagonalization with overlap
     ethr =  3.79E-03,  avg # of iterations =  1.5

     negative rho (up, down):  0.000E+00 1.455E-04

     total cpu time spent up to now is    21058.3 secs

     total energy              =   -2125.99519866 Ry
     estimated scf accuracy    <       1.33695813 Ry

     total magnetization       =    19.03 Bohr mag/cell
     absolute magnetization    =    19.03 Bohr mag/cell

     iteration #  7     ecut=   100.00 Ry     beta= 0.40
     Davidson diagonalization with overlap
     ethr =  7.07E-04,  avg # of iterations =  1.0

     negative rho (up, down):  0.000E+00 2.992E-04

     total cpu time spent up to now is    23930.8 secs

     total energy              =   -2125.97870786 Ry
     estimated scf accuracy    <       0.81635063 Ry

     total magnetization       =    19.00 Bohr mag/cell
     absolute magnetization    =    19.01 Bohr mag/cell

     iteration #  8     ecut=   100.00 Ry     beta= 0.40
     Davidson diagonalization with overlap
     ethr =  4.32E-04,  avg # of iterations =  1.1

     negative rho (up, down):  0.000E+00 4.718E-04

     total cpu time spent up to now is    26813.5 secs

     total energy              =   -2125.94864736 Ry
     estimated scf accuracy    <       0.63734231 Ry

     total magnetization       =    19.00 Bohr mag/cell
     absolute magnetization    =    19.01 Bohr mag/cell

     iteration #  9     ecut=   100.00 Ry     beta= 0.40
     Davidson diagonalization with overlap
     ethr =  3.37E-04,  avg # of iterations =  1.4

     negative rho (up, down):  0.000E+00 4.759E-04

     total cpu time spent up to now is    29742.6 secs

     total energy              =   -2125.97548040 Ry
     estimated scf accuracy    <       0.53644935 Ry

     total magnetization       =    19.00 Bohr mag/cell
     absolute magnetization    =    19.01 Bohr mag/cell

     iteration # 10     ecut=   100.00 Ry     beta= 0.40
     Davidson diagonalization with overlap
     ethr =  2.84E-04,  avg # of iterations =  1.1

     negative rho (up, down):  0.000E+00 8.268E-04

     total cpu time spent up to now is    32626.5 secs

     total energy              =   -2125.96970753 Ry
     estimated scf accuracy    <       0.23064325 Ry

     total magnetization       =    19.00 Bohr mag/cell
     absolute magnetization    =    19.01 Bohr mag/cell

     iteration # 11     ecut=   100.00 Ry     beta= 0.40
     Davidson diagonalization with overlap
     c_bands:  1 eigenvalues not converged
     ethr =  1.22E-04,  avg # of iterations =  7.5

     negative rho (up, down):  0.000E+00 9.794E-04

     total cpu time spent up to now is    36211.0 secs

     total energy              =   -2125.98501010 Ry
     estimated scf accuracy    <       0.30993733 Ry

     total magnetization       =    19.00 Bohr mag/cell
     absolute magnetization    =    19.02 Bohr mag/cell

     iteration # 12     ecut=   100.00 Ry     beta= 0.40
     Davidson diagonalization with overlap
     ethr =  1.22E-04,  avg # of iterations =  1.8

     negative rho (up, down):  0.000E+00 9.426E-04

     total cpu time spent up to now is    39197.6 secs

     total energy              =   -2125.98614337 Ry
     estimated scf accuracy    <       0.43247985 Ry

     total magnetization       =    19.00 Bohr mag/cell
     absolute magnetization    =    19.03 Bohr mag/cell

     iteration # 13     ecut=   100.00 Ry     beta= 0.40
     Davidson diagonalization with overlap
     ethr =  1.22E-04,  avg # of iterations =  1.0

     negative rho (up, down):  0.000E+00 9.542E-04

     total cpu time spent up to now is    42070.3 secs

     total energy              =   -2125.98908801 Ry
     estimated scf accuracy    <       0.22551181 Ry

     total magnetization       =    19.00 Bohr mag/cell
     absolute magnetization    =    19.03 Bohr mag/cell

     iteration # 14     ecut=   100.00 Ry     beta= 0.40
     Davidson diagonalization with overlap
     ethr =  1.19E-04,  avg # of iterations =  1.0

     negative rho (up, down):  0.000E+00 9.638E-04

     total cpu time spent up to now is    44937.0 secs

     total energy              =   -2125.98682110 Ry
     estimated scf accuracy    <       0.16328580 Ry

     total magnetization       =    19.00 Bohr mag/cell
     absolute magnetization    =    19.04 Bohr mag/cell

     iteration # 15     ecut=   100.00 Ry     beta= 0.40
     Davidson diagonalization with overlap
     ethr =  8.64E-05,  avg # of iterations =  1.1

     negative rho (up, down):  0.000E+00 9.681E-04

     total cpu time spent up to now is    47818.0 secs

     total energy              =   -2125.98764381 Ry
     estimated scf accuracy    <       0.04104358 Ry

     total magnetization       =    19.00 Bohr mag/cell
     absolute magnetization    =    19.04 Bohr mag/cell

     iteration # 16     ecut=   100.00 Ry     beta= 0.40
     Davidson diagonalization with overlap
     c_bands:  1 eigenvalues not converged
     c_bands:  1 eigenvalues not converged
     c_bands:  1 eigenvalues not converged
     c_bands:  1 eigenvalues not converged
     c_bands:  1 eigenvalues not converged
     c_bands:  1 eigenvalues not converged
     c_bands:  1 eigenvalues not converged
     c_bands:  1 eigenvalues not converged
     c_bands:  1 eigenvalues not converged
     c_bands:  1 eigenvalues not converged
     c_bands:  1 eigenvalues not converged
     c_bands:  1 eigenvalues not converged
     c_bands:  1 eigenvalues not converged
     c_bands:  1 eigenvalues not converged
     c_bands:  1 eigenvalues not converged
     c_bands:  1 eigenvalues not converged
     c_bands:  1 eigenvalues not converged
     c_bands:  2 eigenvalues not converged
     c_bands:  1 eigenvalues not converged
     c_bands:  1 eigenvalues not converged
     c_bands:  1 eigenvalues not converged
     c_bands:  1 eigenvalues not converged
     c_bands:  1 eigenvalues not converged
     c_bands:  1 eigenvalues not converged
     c_bands:  1 eigenvalues not converged
     c_bands:  1 eigenvalues not converged
     c_bands:  1 eigenvalues not converged
     c_bands:  1 eigenvalues not converged
     c_bands:  1 eigenvalues not converged
     c_bands:  1 eigenvalues not converged
     c_bands:  1 eigenvalues not converged
     c_bands:  1 eigenvalues not converged
     c_bands:  1 eigenvalues not converged
     c_bands:  1 eigenvalues not converged
     c_bands:  2 eigenvalues not converged
     c_bands:  1 eigenvalues not converged
     c_bands:  1 eigenvalues not converged
     c_bands:  1 eigenvalues not converged
     c_bands:  1 eigenvalues not converged
     c_bands:  1 eigenvalues not converged
     c_bands:  1 eigenvalues not converged
     c_bands:  1 eigenvalues not converged
     c_bands:  1 eigenvalues not converged
     c_bands:  1 eigenvalues not converged
     c_bands:  2 eigenvalues not converged
     c_bands:  1 eigenvalues not converged
     c_bands:  1 eigenvalues not converged
     ethr =  2.17E-05,  avg # of iterations = 11.7

     negative rho (up, down):  0.000E+00 9.827E-04

     total cpu time spent up to now is    51908.0 secs

     total energy              =   -2125.98787669 Ry
     estimated scf accuracy    <       0.01787659 Ry

     total magnetization       =    19.00 Bohr mag/cell
     absolute magnetization    =    19.05 Bohr mag/cell

     iteration # 17     ecut=   100.00 Ry     beta= 0.40
     Davidson diagonalization with overlap
     c_bands:  1 eigenvalues not converged
     c_bands:  1 eigenvalues not converged
     c_bands:  1 eigenvalues not converged
     c_bands:  1 eigenvalues not converged
     c_bands:  1 eigenvalues not converged
     c_bands:  1 eigenvalues not converged
     c_bands:  1 eigenvalues not converged
     c_bands:  1 eigenvalues not converged
     c_bands:  1 eigenvalues not converged
     c_bands:  1 eigenvalues not converged
     c_bands:  1 eigenvalues not converged
     c_bands:  1 eigenvalues not converged
     c_bands:  1 eigenvalues not converged
     c_bands:  1 eigenvalues not converged
     c_bands:  1 eigenvalues not converged
     c_bands:  1 eigenvalues not converged
     c_bands:  1 eigenvalues not converged
     c_bands:  1 eigenvalues not converged
     c_bands:  2 eigenvalues not converged
     c_bands:  1 eigenvalues not converged
     c_bands:  1 eigenvalues not converged
     c_bands:  1 eigenvalues not converged
     c_bands:  1 eigenvalues not converged
     c_bands:  1 eigenvalues not converged
     c_bands:  1 eigenvalues not converged
     c_bands:  2 eigenvalues not converged
     ethr =  9.46E-06,  avg # of iterations =  8.4

     negative rho (up, down):  0.000E+00 9.866E-04

     total cpu time spent up to now is    55637.4 secs

     total energy              =   -2125.98841232 Ry
     estimated scf accuracy    <       0.00159497 Ry

     total magnetization       =    19.00 Bohr mag/cell
     absolute magnetization    =    19.05 Bohr mag/cell

     iteration # 18     ecut=   100.00 Ry     beta= 0.40
     Davidson diagonalization with overlap
     c_bands:  1 eigenvalues not converged
     c_bands:  1 eigenvalues not converged
     c_bands:  1 eigenvalues not converged
     c_bands:  1 eigenvalues not converged
     c_bands:  1 eigenvalues not converged
     c_bands:  1 eigenvalues not converged
     c_bands:  1 eigenvalues not converged
     c_bands:  1 eigenvalues not converged
     c_bands:  1 eigenvalues not converged
     c_bands:  1 eigenvalues not converged
     c_bands:  1 eigenvalues not converged
     c_bands:  1 eigenvalues not converged
     c_bands:  1 eigenvalues not converged
     c_bands:  1 eigenvalues not converged
     c_bands:  1 eigenvalues not converged
     c_bands:  1 eigenvalues not converged
     c_bands:  1 eigenvalues not converged
     c_bands:  1 eigenvalues not converged
     c_bands:  1 eigenvalues not converged
     c_bands:  1 eigenvalues not converged
     c_bands:  1 eigenvalues not converged
     c_bands:  1 eigenvalues not converged
     c_bands:  1 eigenvalues not converged
     c_bands:  1 eigenvalues not converged
     c_bands:  1 eigenvalues not converged
     c_bands:  1 eigenvalues not converged
     c_bands:  1 eigenvalues not converged
     c_bands:  1 eigenvalues not converged
     c_bands:  1 eigenvalues not converged
     c_bands:  1 eigenvalues not converged
     c_bands:  1 eigenvalues not converged
     ethr =  8.44E-07,  avg # of iterations = 11.1

     negative rho (up, down):  0.000E+00 9.831E-04

     total cpu time spent up to now is    59925.6 secs

     total energy              =   -2125.98829737 Ry
     estimated scf accuracy    <       0.01094951 Ry

     total magnetization       =    19.00 Bohr mag/cell
     absolute magnetization    =    19.05 Bohr mag/cell

     iteration # 19     ecut=   100.00 Ry     beta= 0.40
     Davidson diagonalization with overlap
     c_bands:  1 eigenvalues not converged
     c_bands:  1 eigenvalues not converged
     ethr =  8.44E-07,  avg # of iterations =  1.3

     negative rho (up, down):  0.000E+00 9.795E-04

     total cpu time spent up to now is    62828.0 secs

     total energy              =   -2125.98855862 Ry
     estimated scf accuracy    <       0.00757260 Ry

     total magnetization       =    19.00 Bohr mag/cell
     absolute magnetization    =    19.05 Bohr mag/cell

     iteration # 20     ecut=   100.00 Ry     beta= 0.40
     Davidson diagonalization with overlap
     ethr =  8.44E-07,  avg # of iterations =  1.0

     negative rho (up, down):  0.000E+00 9.787E-04

     total cpu time spent up to now is    65692.0 secs

     total energy              =   -2125.98864165 Ry
     estimated scf accuracy    <       0.00036949 Ry

     total magnetization       =    19.00 Bohr mag/cell
     absolute magnetization    =    19.05 Bohr mag/cell

     iteration # 21     ecut=   100.00 Ry     beta= 0.40
     Davidson diagonalization with overlap
     ethr =  1.95E-07,  avg # of iterations =  1.5

     negative rho (up, down):  0.000E+00 9.774E-04

     total cpu time spent up to now is    68644.2 secs

     total energy              =   -2125.98865916 Ry
     estimated scf accuracy    <       0.00020958 Ry

     total magnetization       =    19.00 Bohr mag/cell
     absolute magnetization    =    19.05 Bohr mag/cell

     iteration # 22     ecut=   100.00 Ry     beta= 0.40
     Davidson diagonalization with overlap
     ethr =  1.11E-07,  avg # of iterations =  1.6

     negative rho (up, down):  0.000E+00 9.778E-04

     total cpu time spent up to now is    71619.0 secs

     total energy              =   -2125.98866161 Ry
     estimated scf accuracy    <       0.00053348 Ry

     total magnetization       =    19.00 Bohr mag/cell
     absolute magnetization    =    19.05 Bohr mag/cell

     iteration # 23     ecut=   100.00 Ry     beta= 0.40
     Davidson diagonalization with overlap
     ethr =  1.11E-07,  avg # of iterations =  1.0

     negative rho (up, down):  0.000E+00 9.778E-04

     total cpu time spent up to now is    74490.7 secs

     total energy              =   -2125.98867387 Ry
     estimated scf accuracy    <       0.00001595 Ry

     total magnetization       =    19.00 Bohr mag/cell
     absolute magnetization    =    19.05 Bohr mag/cell

     iteration # 24     ecut=   100.00 Ry     beta= 0.40
     Davidson diagonalization with overlap
     ethr =  8.44E-09,  avg # of iterations =  5.2

     negative rho (up, down):  0.000E+00 9.771E-04

     total cpu time spent up to now is    80019.7 secs

     total energy              =   -2125.98868546 Ry
     estimated scf accuracy    <       0.00001255 Ry

     total magnetization       =    19.00 Bohr mag/cell
     absolute magnetization    =    19.05 Bohr mag/cell

     iteration # 25     ecut=   100.00 Ry     beta= 0.40
     Davidson diagonalization with overlap
     ethr =  6.64E-09,  avg # of iterations =  1.0

     negative rho (up, down):  0.000E+00 9.764E-04

     total cpu time spent up to now is    82882.5 secs

     total energy              =   -2125.98868573 Ry
     estimated scf accuracy    <       0.00000661 Ry

     total magnetization       =    19.00 Bohr mag/cell
     absolute magnetization    =    19.05 Bohr mag/cell

     iteration # 26     ecut=   100.00 Ry     beta= 0.40
     Davidson diagonalization with overlap
     ethr =  3.50E-09,  avg # of iterations =  1.0

     negative rho (up, down):  0.000E+00 9.760E-04

     total cpu time spent up to now is    85750.9 secs

     total energy              =   -2125.98868599 Ry
     estimated scf accuracy    <       0.00000057 Ry

     total magnetization       =    19.00 Bohr mag/cell
     absolute magnetization    =    19.05 Bohr mag/cell

     iteration # 27     ecut=   100.00 Ry     beta= 0.40
     Davidson diagonalization with overlap
     ethr =  3.01E-10,  avg # of iterations =  2.1

     negative rho (up, down):  0.000E+00 9.754E-04

     total cpu time spent up to now is    88814.0 secs

     total energy              =   -2125.98868614 Ry
     estimated scf accuracy    <       0.00000056 Ry

     total magnetization       =    19.00 Bohr mag/cell
     absolute magnetization    =    19.05 Bohr mag/cell

     iteration # 28     ecut=   100.00 Ry     beta= 0.40
     Davidson diagonalization with overlap
     ethr =  2.98E-10,  avg # of iterations =  2.0

     negative rho (up, down):  0.000E+00 9.754E-04

     total cpu time spent up to now is    91900.8 secs

     total energy              =   -2125.98868627 Ry
     estimated scf accuracy    <       0.00000012 Ry

     total magnetization       =    19.00 Bohr mag/cell
     absolute magnetization    =    19.05 Bohr mag/cell

     iteration # 29     ecut=   100.00 Ry     beta= 0.40
     Davidson diagonalization with overlap
     ethr =  6.19E-11,  avg # of iterations =  4.5

     negative rho (up, down):  0.000E+00 9.755E-04

     total cpu time spent up to now is    95982.6 secs

     total energy              =   -2125.98868634 Ry
     estimated scf accuracy    <       0.00000008 Ry

     total magnetization       =    19.00 Bohr mag/cell
     absolute magnetization    =    19.05 Bohr mag/cell

     iteration # 30     ecut=   100.00 Ry     beta= 0.40
     Davidson diagonalization with overlap
     ethr =  4.32E-11,  avg # of iterations =  2.0

     negative rho (up, down):  0.000E+00 9.755E-04

     total cpu time spent up to now is    99105.6 secs

     total energy              =   -2125.98868637 Ry
     estimated scf accuracy    <       0.00000013 Ry

     total magnetization       =    19.00 Bohr mag/cell
     absolute magnetization    =    19.05 Bohr mag/cell

     iteration # 31     ecut=   100.00 Ry     beta= 0.40
     Davidson diagonalization with overlap
     ethr =  4.32E-11,  avg # of iterations =  1.5

     negative rho (up, down):  0.000E+00 9.756E-04

     total cpu time spent up to now is   102046.5 secs

     total energy              =   -2125.98868638 Ry
     estimated scf accuracy    <       0.00000005 Ry

     total magnetization       =    19.00 Bohr mag/cell
     absolute magnetization    =    19.05 Bohr mag/cell

     iteration # 32     ecut=   100.00 Ry     beta= 0.40
     Davidson diagonalization with overlap
     ethr =  2.82E-11,  avg # of iterations =  2.0

     negative rho (up, down):  0.000E+00 9.756E-04

     total cpu time spent up to now is   105085.1 secs

     total energy              =   -2125.98868639 Ry
     estimated scf accuracy    <       0.00000005 Ry

     total magnetization       =    19.00 Bohr mag/cell
     absolute magnetization    =    19.05 Bohr mag/cell

     iteration # 33     ecut=   100.00 Ry     beta= 0.40
     Davidson diagonalization with overlap
     ethr =  2.47E-11,  avg # of iterations =  1.0

     negative rho (up, down):  0.000E+00 9.757E-04

     total cpu time spent up to now is   107944.0 secs

     total energy              =   -2125.98868639 Ry
     estimated scf accuracy    <       0.00000003 Ry

     total magnetization       =    19.00 Bohr mag/cell
     absolute magnetization    =    19.05 Bohr mag/cell

     iteration # 34     ecut=   100.00 Ry     beta= 0.40
     Davidson diagonalization with overlap
     ethr =  1.85E-11,  avg # of iterations =  2.0

     negative rho (up, down):  0.000E+00 9.756E-04

     total cpu time spent up to now is   110997.3 secs

     total energy              =   -2125.98868640 Ry
     estimated scf accuracy    <          2.6E-09 Ry

     total magnetization       =    19.00 Bohr mag/cell
     absolute magnetization    =    19.05 Bohr mag/cell

     iteration # 35     ecut=   100.00 Ry     beta= 0.40
     Davidson diagonalization with overlap
     ethr =  1.37E-12,  avg # of iterations =  2.7

     negative rho (up, down):  0.000E+00 9.756E-04

     total cpu time spent up to now is   114392.3 secs

     total energy              =   -2125.98868640 Ry
     estimated scf accuracy    <          4.7E-09 Ry

     total magnetization       =    19.00 Bohr mag/cell
     absolute magnetization    =    19.05 Bohr mag/cell

     iteration # 36     ecut=   100.00 Ry     beta= 0.40
     Davidson diagonalization with overlap
     ethr =  1.37E-12,  avg # of iterations =  2.0

     negative rho (up, down):  0.000E+00 9.756E-04

     total cpu time spent up to now is   117537.0 secs

     total energy              =   -2125.98868640 Ry
     estimated scf accuracy    <          4.8E-09 Ry

     total magnetization       =    19.00 Bohr mag/cell
     absolute magnetization    =    19.05 Bohr mag/cell

     iteration # 37     ecut=   100.00 Ry     beta= 0.40
     Davidson diagonalization with overlap
     ethr =  1.37E-12,  avg # of iterations =  2.0

     negative rho (up, down):  0.000E+00 9.756E-04

     total cpu time spent up to now is   120626.2 secs

     total energy              =   -2125.98868640 Ry
     estimated scf accuracy    <          4.4E-09 Ry

     total magnetization       =    19.00 Bohr mag/cell
     absolute magnetization    =    19.05 Bohr mag/cell

     iteration # 38     ecut=   100.00 Ry     beta= 0.40
     Davidson diagonalization with overlap
     ethr =  1.37E-12,  avg # of iterations =  2.0

     negative rho (up, down):  0.000E+00 9.756E-04

     total cpu time spent up to now is   123647.9 secs

     total energy              =   -2125.98868640 Ry
     estimated scf accuracy    <          1.0E-09 Ry

     total magnetization       =    19.00 Bohr mag/cell
     absolute magnetization    =    19.05 Bohr mag/cell

     iteration # 39     ecut=   100.00 Ry     beta= 0.40
     Davidson diagonalization with overlap
     ethr =  5.38E-13,  avg # of iterations =  1.0

     negative rho (up, down):  0.000E+00 9.756E-04

     total cpu time spent up to now is   126516.7 secs

     total energy              =   -2125.98868640 Ry
     estimated scf accuracy    <          2.1E-10 Ry

     total magnetization       =    19.00 Bohr mag/cell
     absolute magnetization    =    19.05 Bohr mag/cell

     iteration # 40     ecut=   100.00 Ry     beta= 0.40
     Davidson diagonalization with overlap
     ethr =  1.09E-13,  avg # of iterations =  4.1

     negative rho (up, down):  0.000E+00 9.756E-04

     total cpu time spent up to now is   130169.8 secs

     total energy              =   -2125.98868640 Ry
     estimated scf accuracy    <          9.8E-10 Ry

     total magnetization       =    19.00 Bohr mag/cell
     absolute magnetization    =    19.05 Bohr mag/cell

     iteration # 41     ecut=   100.00 Ry     beta= 0.40
     Davidson diagonalization with overlap
     ethr =  1.09E-13,  avg # of iterations =  2.0

     negative rho (up, down):  0.000E+00 9.756E-04

     Magnetic moment per site:
     atom:    1    charge:    7.9345    magn:    0.0013    constr:    0.0000
     atom:    2    charge:   12.9944    magn:    3.6853    constr:    0.0000
     atom:    3    charge:   13.0021    magn:    3.6645    constr:    0.0000
     atom:    4    charge:   12.9915    magn:    3.6958    constr:    0.0000
     atom:    5    charge:   13.0212    magn:    3.6204    constr:    0.0000
     atom:    6    charge:    0.8137    magn:    0.0090    constr:    0.0000
     atom:    7    charge:    0.8062    magn:    0.0100    constr:    0.0000
     atom:    8    charge:    0.8101    magn:    0.0091    constr:    0.0000
     atom:    9    charge:    0.8075    magn:    0.0108    constr:    0.0000
     atom:   10    charge:    4.2635    magn:    0.0926    constr:    0.0000
     atom:   11    charge:    4.2540    magn:    0.1152    constr:    0.0000
     atom:   12    charge:    4.2493    magn:    0.1124    constr:    0.0000
     atom:   13    charge:    4.2551    magn:    0.1091    constr:    0.0000
     atom:   14    charge:    4.2010    magn:    0.1297    constr:    0.0000
     atom:   15    charge:    4.1974    magn:    0.1042    constr:    0.0000
     atom:   16    charge:    4.1971    magn:    0.1276    constr:    0.0000
     atom:   17    charge:    4.2022    magn:    0.0920    constr:    0.0000
     atom:   18    charge:    4.2058    magn:    0.1286    constr:    0.0000
     atom:   19    charge:    4.1972    magn:    0.1476    constr:    0.0000
     atom:   20    charge:    4.2010    magn:    0.1165    constr:    0.0000
     atom:   21    charge:    4.1976    magn:    0.1516    constr:    0.0000
     atom:   22    charge:    4.2117    magn:    0.1333    constr:    0.0000
     atom:   23    charge:    4.1987    magn:    0.1407    constr:    0.0000
     atom:   24    charge:    4.2021    magn:    0.1246    constr:    0.0000
     atom:   25    charge:    4.1902    magn:    0.1518    constr:    0.0000

     total cpu time spent up to now is   133227.9 secs

     End of self-consistent calculation

 ------ SPIN UP ------------


          k = 0.0000 0.0000 0.0000 ( 40219 PWs)   bands (ev):

   -86.5238 -86.5060 -86.3435 -86.1761 -52.6077 -52.5814 -52.5012 -52.4745
   -52.4668 -52.4503 -52.4277 -52.4170 -52.3105 -52.1859 -52.1224 -51.9695
   -45.6721 -17.6979 -17.6562 -17.6102 -16.6311 -16.4986 -16.4085 -16.2733
   -14.5160 -14.4261 -14.3190 -14.2522 -14.2142 -14.1610 -14.1570 -14.1062
   -14.0901 -14.0402 -13.9843 -13.9091  -5.0722  -4.7072  -4.5538  -4.3362
    -2.9370  -2.7844  -2.6260  -2.4539  -2.2470  -2.0778  -2.0357  -1.9219
    -1.7978  -1.7783  -1.6968  -1.5911  -0.9489  -0.8919  -0.5895  -0.5058
    -0.4845  -0.4521  -0.4392  -0.2704  -0.2289  -0.1875  -0.0562  -0.0195
     0.2070   0.2837   0.3079   0.5477   0.6163   0.6590   0.7814   0.8564
     0.9664   1.0302   1.0973   1.2184   1.2712   1.4024   1.4753   1.4982
     1.6209   1.6368   1.7112   1.7556   1.8302   1.8773   2.1495   2.2002
     2.2646   2.3199   2.3575   2.4319   2.5256   2.6332   2.6979   2.7547
     2.8963   2.9204   2.9804   3.0698   3.1448   3.2078   3.5292   3.6330
     7.2819   9.2129   9.5357  10.0242  10.6289  11.0079  11.1266  11.7292
    11.7846  11.8374

     occupation numbers 
     1.0000   1.0000   1.0000   1.0000   1.0000   1.0000   1.0000   1.0000
     1.0000   1.0000   1.0000   1.0000   1.0000   1.0000   1.0000   1.0000
     1.0000   1.0000   1.0000   1.0000   1.0000   1.0000   1.0000   1.0000
     1.0000   1.0000   1.0000   1.0000   1.0000   1.0000   1.0000   1.0000
     1.0000   1.0000   1.0000   1.0000   1.0000   1.0000   1.0000   1.0000
     1.0000   1.0000   1.0000   1.0000   1.0000   1.0000   1.0000   1.0000
     1.0000   1.0000   1.0000   1.0000   1.0000   1.0000   1.0000   1.0000
     1.0000   1.0000   1.0000   1.0000   1.0000   1.0000   1.0000   1.0000
     1.0000   1.0000   1.0000   1.0000   1.0000   1.0000   1.0000   1.0000
     1.0000   1.0000   1.0000   1.0000   1.0000   1.0000   1.0000   1.0000
     1.0000   1.0000   1.0000   1.0000   1.0000   1.0000   1.0000   1.0000
     1.0000   1.0000   1.0000   1.0000   1.0000   1.0000   1.0000   1.0000
     1.0000   1.0000   1.0000   1.0000   1.0000   1.0000   1.0000   1.0000
     0.0000   0.0000   0.0000   0.0000   0.0000   0.0000   0.0000   0.0000
     0.0000   0.0000

          k = 0.0000 0.0000 0.2454 ( 40205 PWs)   bands (ev):

   -86.5238 -86.5060 -86.3435 -86.1760 -52.6077 -52.5814 -52.5012 -52.4745
   -52.4668 -52.4503 -52.4277 -52.4170 -52.3105 -52.1859 -52.1224 -51.9695
   -45.6721 -17.6986 -17.6559 -17.6117 -16.6178 -16.4876 -16.4005 -16.2684
   -14.5332 -14.4440 -14.3424 -14.2572 -14.2158 -14.1722 -14.1525 -14.1030
   -14.0833 -14.0397 -13.9831 -13.9081  -5.0482  -4.7017  -4.5461  -4.3307
    -2.9067  -2.7685  -2.6196  -2.4339  -2.2419  -2.0822  -2.0346  -1.8926
    -1.8100  -1.7717  -1.6932  -1.5901  -0.9334  -0.8769  -0.6186  -0.4902
    -0.4727  -0.4668  -0.4257  -0.2754  -0.2241  -0.1859  -0.0875  -0.0094
     0.1856   0.2766   0.3266   0.5387   0.6011   0.6397   0.7577   0.8474
     0.9526   1.0167   1.1224   1.1921   1.2413   1.3687   1.4638   1.5255
     1.6234   1.6558   1.7277   1.7342   1.8188   1.8655   2.1492   2.1960
     2.2621   2.2972   2.3512   2.4330   2.4996   2.6432   2.6970   2.7809
     2.8885   2.9052   2.9897   3.0668   3.1516   3.2023   3.5286   3.6267
     7.4191   9.2802   9.5608  10.0531  10.6703  10.9729  11.0728  11.6129
    11.7707  11.8236

     occupation numbers 
     1.0000   1.0000   1.0000   1.0000   1.0000   1.0000   1.0000   1.0000
     1.0000   1.0000   1.0000   1.0000   1.0000   1.0000   1.0000   1.0000
     1.0000   1.0000   1.0000   1.0000   1.0000   1.0000   1.0000   1.0000
     1.0000   1.0000   1.0000   1.0000   1.0000   1.0000   1.0000   1.0000
     1.0000   1.0000   1.0000   1.0000   1.0000   1.0000   1.0000   1.0000
     1.0000   1.0000   1.0000   1.0000   1.0000   1.0000   1.0000   1.0000
     1.0000   1.0000   1.0000   1.0000   1.0000   1.0000   1.0000   1.0000
     1.0000   1.0000   1.0000   1.0000   1.0000   1.0000   1.0000   1.0000
     1.0000   1.0000   1.0000   1.0000   1.0000   1.0000   1.0000   1.0000
     1.0000   1.0000   1.0000   1.0000   1.0000   1.0000   1.0000   1.0000
     1.0000   1.0000   1.0000   1.0000   1.0000   1.0000   1.0000   1.0000
     1.0000   1.0000   1.0000   1.0000   1.0000   1.0000   1.0000   1.0000
     1.0000   1.0000   1.0000   1.0000   1.0000   1.0000   1.0000   1.0000
     0.0000   0.0000   0.0000   0.0000   0.0000   0.0000   0.0000   0.0000
     0.0000   0.0000

          k = 0.0000 0.0000 0.4908 ( 40238 PWs)   bands (ev):

   -86.5238 -86.5060 -86.3435 -86.1761 -52.6077 -52.5814 -52.5012 -52.4745
   -52.4668 -52.4503 -52.4277 -52.4170 -52.3105 -52.1859 -52.1224 -51.9695
   -45.6721 -17.7008 -17.6551 -17.6151 -16.5834 -16.4575 -16.3806 -16.2567
   -14.5761 -14.4892 -14.3968 -14.2826 -14.2251 -14.1770 -14.1439 -14.0982
   -14.0713 -14.0383 -13.9818 -13.9054  -4.9828  -4.6883  -4.5263  -4.3267
    -2.8277  -2.7310  -2.5890  -2.3984  -2.2317  -2.0853  -2.0279  -1.8699
    -1.8026  -1.7514  -1.6708  -1.5817  -0.8930  -0.8358  -0.6389  -0.5098
    -0.4930  -0.4448  -0.3702  -0.3029  -0.2148  -0.1629  -0.1285  -0.0067
     0.1590   0.2618   0.3363   0.5145   0.5530   0.5964   0.6985   0.8359
     0.8880   0.9689   1.0870   1.1677   1.2422   1.3211   1.4532   1.4845
     1.6110   1.6472   1.7128   1.7433   1.7864   1.8573   2.1060   2.1449
     2.2140   2.3132   2.3758   2.4339   2.5388   2.6478   2.7116   2.8028
     2.8661   2.9298   2.9962   3.0600   3.1704   3.1966   3.5137   3.6134
     7.7840   9.4478   9.6147  10.1414  10.7439  10.8970  10.9416  11.4352
    11.6360  11.7347

     occupation numbers 
     1.0000   1.0000   1.0000   1.0000   1.0000   1.0000   1.0000   1.0000
     1.0000   1.0000   1.0000   1.0000   1.0000   1.0000   1.0000   1.0000
     1.0000   1.0000   1.0000   1.0000   1.0000   1.0000   1.0000   1.0000
     1.0000   1.0000   1.0000   1.0000   1.0000   1.0000   1.0000   1.0000
     1.0000   1.0000   1.0000   1.0000   1.0000   1.0000   1.0000   1.0000
     1.0000   1.0000   1.0000   1.0000   1.0000   1.0000   1.0000   1.0000
     1.0000   1.0000   1.0000   1.0000   1.0000   1.0000   1.0000   1.0000
     1.0000   1.0000   1.0000   1.0000   1.0000   1.0000   1.0000   1.0000
     1.0000   1.0000   1.0000   1.0000   1.0000   1.0000   1.0000   1.0000
     1.0000   1.0000   1.0000   1.0000   1.0000   1.0000   1.0000   1.0000
     1.0000   1.0000   1.0000   1.0000   1.0000   1.0000   1.0000   1.0000
     1.0000   1.0000   1.0000   1.0000   1.0000   1.0000   1.0000   1.0000
     1.0000   1.0000   1.0000   1.0000   1.0000   1.0000   1.0000   1.0000
     0.0000   0.0000   0.0000   0.0000   0.0000   0.0000   0.0000   0.0000
     0.0000   0.0000

          k = 0.0000 0.0000 0.7363 ( 40234 PWs)   bands (ev):

   -86.5238 -86.5060 -86.3435 -86.1760 -52.6077 -52.5814 -52.5012 -52.4745
   -52.4668 -52.4503 -52.4277 -52.4170 -52.3105 -52.1859 -52.1225 -51.9695
   -45.6721 -17.7038 -17.6540 -17.6183 -16.5427 -16.4174 -16.3596 -16.2452
   -14.6240 -14.5402 -14.4564 -14.3253 -14.2299 -14.1729 -14.1346 -14.0939
   -14.0631 -14.0359 -13.9833 -13.9019  -4.8971  -4.6752  -4.5015  -4.3434
    -2.7514  -2.6793  -2.5321  -2.3764  -2.2190  -2.0780  -2.0236  -1.9205
    -1.7683  -1.7137  -1.6300  -1.5282  -0.8398  -0.7791  -0.6275  -0.5290
    -0.4747  -0.4352  -0.3980  -0.2599  -0.1822  -0.1366  -0.1183  -0.0327
     0.1393   0.2250   0.3224   0.4356   0.4900   0.5490   0.6214   0.7488
     0.8310   0.9267   1.0574   1.1425   1.2748   1.3015   1.3507   1.4222
     1.5348   1.6428   1.6747   1.7097   1.7814   1.8902   2.0299   2.0550
     2.1647   2.3109   2.4211   2.5103   2.6262   2.6805   2.7331   2.8115
     2.8533   2.9897   3.0008   3.0599   3.1718   3.2131   3.4786   3.5937
     8.2788   9.4926   9.7781  10.2715  10.5821  10.7431  11.0599  11.3215
    11.4733  11.5962

     occupation numbers 
     1.0000   1.0000   1.0000   1.0000   1.0000   1.0000   1.0000   1.0000
     1.0000   1.0000   1.0000   1.0000   1.0000   1.0000   1.0000   1.0000
     1.0000   1.0000   1.0000   1.0000   1.0000   1.0000   1.0000   1.0000
     1.0000   1.0000   1.0000   1.0000   1.0000   1.0000   1.0000   1.0000
     1.0000   1.0000   1.0000   1.0000   1.0000   1.0000   1.0000   1.0000
     1.0000   1.0000   1.0000   1.0000   1.0000   1.0000   1.0000   1.0000
     1.0000   1.0000   1.0000   1.0000   1.0000   1.0000   1.0000   1.0000
     1.0000   1.0000   1.0000   1.0000   1.0000   1.0000   1.0000   1.0000
     1.0000   1.0000   1.0000   1.0000   1.0000   1.0000   1.0000   1.0000
     1.0000   1.0000   1.0000   1.0000   1.0000   1.0000   1.0000   1.0000
     1.0000   1.0000   1.0000   1.0000   1.0000   1.0000   1.0000   1.0000
     1.0000   1.0000   1.0000   1.0000   1.0000   1.0000   1.0000   1.0000
     1.0000   1.0000   1.0000   1.0000   1.0000   1.0000   1.0000   1.0000
     0.0000   0.0000   0.0000   0.0000   0.0000   0.0000   0.0000   0.0000
     0.0000   0.0000

          k = 0.0000 0.0000 0.9817 ( 40292 PWs)   bands (ev):

   -86.5238 -86.5060 -86.3435 -86.1761 -52.6077 -52.5814 -52.5012 -52.4745
   -52.4668 -52.4503 -52.4277 -52.4170 -52.3105 -52.1859 -52.1225 -51.9695
   -45.6721 -17.7061 -17.6532 -17.6201 -16.5154 -16.3832 -16.3507 -16.2395
   -14.6548 -14.5730 -14.4956 -14.3559 -14.2309 -14.1698 -14.1284 -14.0911
   -14.0596 -14.0337 -13.9859 -13.8994  -4.8290  -4.6708  -4.4788  -4.3742
    -2.7239  -2.6281  -2.4820  -2.3699  -2.1980  -2.0872  -2.0201  -1.9491
    -1.7735  -1.7064  -1.5739  -1.4655  -0.7760  -0.7356  -0.6140  -0.5347
    -0.4831  -0.4501  -0.3708  -0.1857  -0.1483  -0.1079  -0.0602  -0.0457
     0.0680   0.1462   0.2471   0.3326   0.4294   0.5358   0.5725   0.7513
     0.7703   0.9668   1.0216   1.1311   1.1925   1.2601   1.3251   1.3772
     1.4995   1.6067   1.6831   1.7074   1.7771   1.8943   1.9585   2.0021
     2.1472   2.3145   2.4595   2.5768   2.5890   2.7191   2.8047   2.8265
     2.8899   2.9855   3.0418   3.0635   3.1678   3.2251   3.4484   3.5695
     8.8044   9.2523  10.0404  10.2959  10.4121  10.6513  11.1557  11.3004
    11.4211  11.4532

     occupation numbers 
     1.0000   1.0000   1.0000   1.0000   1.0000   1.0000   1.0000   1.0000
     1.0000   1.0000   1.0000   1.0000   1.0000   1.0000   1.0000   1.0000
     1.0000   1.0000   1.0000   1.0000   1.0000   1.0000   1.0000   1.0000
     1.0000   1.0000   1.0000   1.0000   1.0000   1.0000   1.0000   1.0000
     1.0000   1.0000   1.0000   1.0000   1.0000   1.0000   1.0000   1.0000
     1.0000   1.0000   1.0000   1.0000   1.0000   1.0000   1.0000   1.0000
     1.0000   1.0000   1.0000   1.0000   1.0000   1.0000   1.0000   1.0000
     1.0000   1.0000   1.0000   1.0000   1.0000   1.0000   1.0000   1.0000
     1.0000   1.0000   1.0000   1.0000   1.0000   1.0000   1.0000   1.0000
     1.0000   1.0000   1.0000   1.0000   1.0000   1.0000   1.0000   1.0000
     1.0000   1.0000   1.0000   1.0000   1.0000   1.0000   1.0000   1.0000
     1.0000   1.0000   1.0000   1.0000   1.0000   1.0000   1.0000   1.0000
     1.0000   1.0000   1.0000   1.0000   1.0000   1.0000   1.0000   1.0000
     0.0000   0.0000   0.0000   0.0000   0.0000   0.0000   0.0000   0.0000
     0.0000   0.0000

          k = 0.0000 0.2391 0.0000 ( 40223 PWs)   bands (ev):

   -86.5238 -86.5060 -86.3435 -86.1761 -52.6077 -52.5814 -52.5012 -52.4745
   -52.4668 -52.4503 -52.4277 -52.4170 -52.3105 -52.1859 -52.1224 -51.9695
   -45.6721 -17.6981 -17.6565 -17.6102 -16.6200 -16.4955 -16.4089 -16.2835
   -14.5133 -14.4222 -14.3220 -14.2608 -14.2332 -14.1779 -14.1482 -14.1051
   -14.0809 -14.0347 -13.9873 -13.8976  -5.0493  -4.7048  -4.5539  -4.3396
    -2.9107  -2.7609  -2.6254  -2.4535  -2.2318  -2.0618  -2.0319  -1.9182
    -1.8189  -1.7661  -1.6849  -1.5822  -0.9472  -0.8956  -0.6002  -0.5825
    -0.4981  -0.4809  -0.4215  -0.3155  -0.2418  -0.1899  -0.0280   0.0836
     0.1900   0.2706   0.3352   0.5150   0.5911   0.6265   0.7792   0.8197
     0.9506   1.0039   1.0859   1.1977   1.2627   1.3837   1.4338   1.5507
     1.6103   1.6829   1.6989   1.7649   1.8144   1.9256   2.1256   2.1983
     2.2188   2.2991   2.3764   2.4678   2.5455   2.6243   2.6699   2.7654
     2.8828   2.9263   2.9753   3.0692   3.0854   3.3002   3.5491   3.6338
     7.4314   9.2913   9.6232   9.9228  10.6307  10.9661  11.1731  11.6403
    11.8188  11.8538

     occupation numbers 
     1.0000   1.0000   1.0000   1.0000   1.0000   1.0000   1.0000   1.0000
     1.0000   1.0000   1.0000   1.0000   1.0000   1.0000   1.0000   1.0000
     1.0000   1.0000   1.0000   1.0000   1.0000   1.0000   1.0000   1.0000
     1.0000   1.0000   1.0000   1.0000   1.0000   1.0000   1.0000   1.0000
     1.0000   1.0000   1.0000   1.0000   1.0000   1.0000   1.0000   1.0000
     1.0000   1.0000   1.0000   1.0000   1.0000   1.0000   1.0000   1.0000
     1.0000   1.0000   1.0000   1.0000   1.0000   1.0000   1.0000   1.0000
     1.0000   1.0000   1.0000   1.0000   1.0000   1.0000   1.0000   1.0000
     1.0000   1.0000   1.0000   1.0000   1.0000   1.0000   1.0000   1.0000
     1.0000   1.0000   1.0000   1.0000   1.0000   1.0000   1.0000   1.0000
     1.0000   1.0000   1.0000   1.0000   1.0000   1.0000   1.0000   1.0000
     1.0000   1.0000   1.0000   1.0000   1.0000   1.0000   1.0000   1.0000
     1.0000   1.0000   1.0000   1.0000   1.0000   1.0000   1.0000   1.0000
     0.0000   0.0000   0.0000   0.0000   0.0000   0.0000   0.0000   0.0000
     0.0000   0.0000

          k = 0.0000 0.2391 0.2454 ( 40217 PWs)   bands (ev):

   -86.5238 -86.5060 -86.3435 -86.1761 -52.6077 -52.5814 -52.5012 -52.4745
   -52.4668 -52.4503 -52.4277 -52.4170 -52.3105 -52.1859 -52.1224 -51.9695
   -45.6721 -17.6984 -17.6563 -17.6116 -16.6092 -16.4859 -16.4019 -16.2736
   -14.5306 -14.4407 -14.3489 -14.2764 -14.2275 -14.1642 -14.1526 -14.1013
   -14.0796 -14.0362 -13.9835 -13.9015  -5.0268  -4.6981  -4.5466  -4.3305
    -2.8842  -2.7438  -2.6282  -2.4288  -2.2199  -2.0589  -2.0136  -1.8935
    -1.8197  -1.7676  -1.6937  -1.5971  -0.9456  -0.8817  -0.6357  -0.5505
    -0.5038  -0.4483  -0.4406  -0.3035  -0.2558  -0.2125  -0.0133   0.0690
     0.1694   0.2644   0.3531   0.5027   0.5771   0.6151   0.7386   0.8843
     0.9382   0.9790   1.1112   1.1752   1.2536   1.3722   1.4299   1.5446
     1.6055   1.6574   1.6713   1.7354   1.8103   1.9186   2.1225   2.1865
     2.2568   2.2983   2.3756   2.4164   2.5014   2.6253   2.7009   2.7872
     2.8858   2.9133   2.9628   3.0860   3.1151   3.3011   3.5283   3.6402
     7.5607   9.3724   9.6472   9.9513  10.6701  10.9134  11.1278  11.5695
    11.7953  11.8444

     occupation numbers 
     1.0000   1.0000   1.0000   1.0000   1.0000   1.0000   1.0000   1.0000
     1.0000   1.0000   1.0000   1.0000   1.0000   1.0000   1.0000   1.0000
     1.0000   1.0000   1.0000   1.0000   1.0000   1.0000   1.0000   1.0000
     1.0000   1.0000   1.0000   1.0000   1.0000   1.0000   1.0000   1.0000
     1.0000   1.0000   1.0000   1.0000   1.0000   1.0000   1.0000   1.0000
     1.0000   1.0000   1.0000   1.0000   1.0000   1.0000   1.0000   1.0000
     1.0000   1.0000   1.0000   1.0000   1.0000   1.0000   1.0000   1.0000
     1.0000   1.0000   1.0000   1.0000   1.0000   1.0000   1.0000   1.0000
     1.0000   1.0000   1.0000   1.0000   1.0000   1.0000   1.0000   1.0000
     1.0000   1.0000   1.0000   1.0000   1.0000   1.0000   1.0000   1.0000
     1.0000   1.0000   1.0000   1.0000   1.0000   1.0000   1.0000   1.0000
     1.0000   1.0000   1.0000   1.0000   1.0000   1.0000   1.0000   1.0000
     1.0000   1.0000   1.0000   1.0000   1.0000   1.0000   1.0000   1.0000
     0.0000   0.0000   0.0000   0.0000   0.0000   0.0000   0.0000   0.0000
     0.0000   0.0000

          k = 0.0000 0.2391 0.4908 ( 40204 PWs)   bands (ev):

   -86.5238 -86.5060 -86.3435 -86.1760 -52.6077 -52.5814 -52.5012 -52.4745
   -52.4668 -52.4503 -52.4277 -52.4170 -52.3105 -52.1859 -52.1224 -51.9695
   -45.6721 -17.7002 -17.6555 -17.6150 -16.5771 -16.4577 -16.3828 -16.2564
   -14.5737 -14.4863 -14.4052 -14.3091 -14.2200 -14.1745 -14.1387 -14.0974
   -14.0730 -14.0352 -13.9786 -13.9037  -4.9633  -4.6824  -4.5285  -4.3201
    -2.8105  -2.7092  -2.6008  -2.3874  -2.2065  -2.0573  -1.9866  -1.8745
    -1.8216  -1.7603  -1.6817  -1.5825  -0.9236  -0.8484  -0.6605  -0.5306
    -0.5072  -0.4533  -0.3810  -0.3097  -0.2784  -0.2214  -0.0019   0.0446
     0.1423   0.2617   0.3442   0.4804   0.5375   0.5819   0.6698   0.8391
     0.9044   1.0069   1.1255   1.1794   1.2184   1.3216   1.3766   1.4945
     1.5853   1.6215   1.6761   1.6984   1.7904   1.8784   2.1051   2.1393
     2.2258   2.3053   2.3546   2.4283   2.5092   2.6483   2.7365   2.7901
     2.8709   2.9317   2.9766   3.1116   3.1513   3.2832   3.5095   3.6361
     7.9102   9.5614   9.6807  10.0486  10.7693  10.8754  10.9654  11.4176
    11.5639  11.7707

     occupation numbers 
     1.0000   1.0000   1.0000   1.0000   1.0000   1.0000   1.0000   1.0000
     1.0000   1.0000   1.0000   1.0000   1.0000   1.0000   1.0000   1.0000
     1.0000   1.0000   1.0000   1.0000   1.0000   1.0000   1.0000   1.0000
     1.0000   1.0000   1.0000   1.0000   1.0000   1.0000   1.0000   1.0000
     1.0000   1.0000   1.0000   1.0000   1.0000   1.0000   1.0000   1.0000
     1.0000   1.0000   1.0000   1.0000   1.0000   1.0000   1.0000   1.0000
     1.0000   1.0000   1.0000   1.0000   1.0000   1.0000   1.0000   1.0000
     1.0000   1.0000   1.0000   1.0000   1.0000   1.0000   1.0000   1.0000
     1.0000   1.0000   1.0000   1.0000   1.0000   1.0000   1.0000   1.0000
[...]
     atom   22 type  3   force =     0.03112846    0.04880259   -0.01327276
     atom   23 type  3   force =    -0.02074787   -0.04637075   -0.02358709
     atom   24 type  3   force =    -0.00565285    0.06697017    0.03460950
     atom   25 type  3   force =     0.01708300   -0.05443790    0.01611502
     The non-local contrib.  to forces
     atom    1 type  2   force =    -0.05821375   -0.03457968   -0.02315923
     atom    2 type  1   force =     0.05452067   -0.16443863   -0.02964627
     atom    3 type  1   force =    -0.04426174   -0.23604948    0.09378379
     atom    4 type  1   force =    -0.10022002    0.15516436    0.05163561
     atom    5 type  1   force =     0.06747196    0.22078390   -0.10044878
     atom    6 type  4   force =    -0.07466135    0.02194615   -0.05846509
     atom    7 type  4   force =     0.02675531    0.00856844   -0.11139524
     atom    8 type  4   force =     0.06411534   -0.01908182    0.07375446
     atom    9 type  4   force =    -0.02910116   -0.01140985    0.11471625
     atom   10 type  3   force =    -0.05651467   -0.09591585   -1.41922267
     atom   11 type  3   force =    -0.12036974    0.13633571   -1.48037465
     atom   12 type  3   force =    -0.02589669    0.08398205    1.48076024
     atom   13 type  3   force =     0.11176551   -0.14287718    1.49070487
     atom   14 type  3   force =     1.30411412   -0.00631387   -0.60484104
     atom   15 type  3   force =    -1.18595647    0.54002973   -0.43625607
     atom   16 type  3   force =    -1.33331942   -0.00432590    0.56318673
     atom   17 type  3   force =     1.17644798   -0.53453039    0.33104248
     atom   18 type  3   force =    -0.61864194   -1.37227261    0.48627015
     atom   19 type  3   force =     0.44310748    0.95111723    0.86088860
     atom   20 type  3   force =     0.00133552   -1.25203214   -1.03292583
     atom   21 type  3   force =    -0.35379240    1.11105687   -0.59422362
     atom   22 type  3   force =     0.69907798    1.27847961   -0.36822612
     atom   23 type  3   force =    -0.49309112   -0.93377330   -0.86216607
     atom   24 type  3   force =    -0.07850875    1.28145728    1.00835374
     atom   25 type  3   force =     0.43154236   -1.08838307    0.64129164
     The ionic contribution  to forces
     atom    1 type  2   force =    -1.02684738    0.84895840    1.28760884
     atom    2 type  1   force =    13.03407482   -3.11071440   -0.84765092
     atom    3 type  1   force =     1.94221709   -2.87634573   -1.94196235
     atom    4 type  1   force =   -12.34800034    1.97239095    1.53332845
     atom    5 type  1   force =    -3.91746595    2.73851298    1.09058522
     atom    6 type  4   force =    -0.78852980   -0.62289291   -0.63473691
     atom    7 type  4   force =     4.74489988    0.37377800    0.03066390
     atom    8 type  4   force =     1.70022249    0.20448585    0.49991810
     atom    9 type  4   force =    -5.08426021   -0.08559923   -0.21096338
     atom   10 type  3   force =    -2.78813754   -1.15143070    1.02773430
     atom   11 type  3   force =     9.29412457   -0.67969776    2.37299219
     atom   12 type  3   force =     5.24813339   -0.14421090   -2.26997478
     atom   13 type  3   force =    -9.65433981    1.13444813   -2.42467785
     atom   14 type  3   force =     1.95309614   -0.43844802    5.98660451
     atom   15 type  3   force =    -0.38433447   -0.80737055    3.47917740
     atom   16 type  3   force =    -1.93167982    0.41189905   -5.80857807
     atom   17 type  3   force =     0.45948509    1.88410718   -2.59448623
     atom   18 type  3   force =     0.78143299    6.15624678    2.63000100
     atom   19 type  3   force =     6.12525894   -1.61659900   -3.52310966
     atom   20 type  3   force =     3.71557278    0.40866633    7.42039188
     atom   21 type  3   force =    -7.18754469   -3.19168386    0.87683346
     atom   22 type  3   force =    -1.03907844   -4.59631710   -3.07393516
     atom   23 type  3   force =    -5.90781169    2.09364481    3.50943122
     atom   24 type  3   force =    -3.09785142   -1.76059463   -7.03982443
     atom   25 type  3   force =     6.15736338    2.85476632   -1.37537072
     The local contribution  to forces
     atom    1 type  2   force =     1.08626625   -0.80815196   -1.26804570
     atom    2 type  1   force =   -13.07920593    3.28446346    0.88198435
     atom    3 type  1   force =    -1.90578141    3.12974049    1.84918948
     atom    4 type  1   force =    12.44162221   -2.13623442   -1.58871021
     atom    5 type  1   force =     3.85486490   -2.97361322   -0.99003014
     atom    6 type  4   force =     0.84142530    0.58175826    0.65114713
     atom    7 type  4   force =    -4.74028564   -0.38274040    0.03202888
     atom    8 type  4   force =    -1.73844614   -0.17246396   -0.53307561
     atom    9 type  4   force =     5.08291614    0.09872907    0.14652235
     atom   10 type  3   force =     2.85141478    1.24924305    0.38451798
     atom   11 type  3   force =    -9.18725023    0.54735299   -0.90381705
     atom   12 type  3   force =    -5.23359136    0.05852790    0.79941616
     atom   13 type  3   force =     9.55415446   -0.99612244    0.94578110
     atom   14 type  3   force =    -3.17261734    0.44442301   -5.40657597
     atom   15 type  3   force =     1.48835342    0.29486556   -3.05840053
     atom   16 type  3   force =     3.17688605   -0.40794435    5.26738108
     atom   17 type  3   force =    -1.55326662   -1.37611948    2.27733868
     atom   18 type  3   force =    -0.19595274   -4.85122620   -3.09454384
     atom   19 type  3   force =    -6.54619590    0.72129732    2.69301975
     atom   20 type  3   force =    -3.71528530    0.76498171   -6.43451668
     atom   21 type  3   force =     7.52494911    2.14486948   -0.30242194
     atom   22 type  3   force =     0.37764948    3.37922288    3.42575969
     atom   23 type  3   force =     6.37542569   -1.21489604   -2.67930048
     atom   24 type  3   force =     3.17014345    0.55822647    6.07619464
     atom   25 type  3   force =    -6.56771454   -1.83115826    0.75641597
     The core correction contribution to forces
     atom    1 type  2   force =     0.00000000    0.00000000    0.00000000
     atom    2 type  1   force =    -0.00139643    0.00143771    0.00030203
     atom    3 type  1   force =     0.00151029    0.00170109   -0.00078521
     atom    4 type  1   force =     0.00178483   -0.00152773   -0.00079519
     atom    5 type  1   force =    -0.00176347   -0.00191608    0.00082132
     atom    6 type  4   force =     0.00691630   -0.00079813    0.00615815
     atom    7 type  4   force =    -0.00307052   -0.00105228    0.01004767
     atom    8 type  4   force =    -0.00636133    0.00055509   -0.00720489
     atom    9 type  4   force =     0.00324399    0.00103985   -0.01011360
     atom   10 type  3   force =    -0.00027953    0.00087327    0.01240634
     atom   11 type  3   force =     0.00192998   -0.00134749    0.01295656
     atom   12 type  3   force =     0.00102485   -0.00071435   -0.01305722
     atom   13 type  3   force =    -0.00184549    0.00143853   -0.01300879
     atom   14 type  3   force =    -0.01244492    0.00007897    0.00628493
     atom   15 type  3   force =     0.01130617   -0.00561086    0.00468054
     atom   16 type  3   force =     0.01274992    0.00001717   -0.00590170
     atom   17 type  3   force =    -0.01118995    0.00560104   -0.00365680
     atom   18 type  3   force =     0.00566545    0.01346927   -0.00433076
     atom   19 type  3   force =    -0.00421285   -0.00886397   -0.00845286
     atom   20 type  3   force =     0.00019833    0.01189669    0.01035233
     atom   21 type  3   force =     0.00335406   -0.01053973    0.00574652
     atom   22 type  3   force =    -0.00652010   -0.01258121    0.00312853
     atom   23 type  3   force =     0.00472157    0.00865684    0.00844525
     atom   24 type  3   force =     0.00056844   -0.01212026   -0.01011440
     atom   25 type  3   force =    -0.00411423    0.01033863   -0.00622281
     The Hubbard contrib.    to forces
     atom    1 type  2   force =     0.00000000    0.00000000    0.00000000
     atom    2 type  1   force =     0.00000000    0.00000000    0.00000000
     atom    3 type  1   force =     0.00000000    0.00000000    0.00000000
     atom    4 type  1   force =     0.00000000    0.00000000    0.00000000
     atom    5 type  1   force =     0.00000000    0.00000000    0.00000000
     atom    6 type  4   force =     0.00000000    0.00000000    0.00000000
     atom    7 type  4   force =     0.00000000    0.00000000    0.00000000
     atom    8 type  4   force =     0.00000000    0.00000000    0.00000000
     atom    9 type  4   force =     0.00000000    0.00000000    0.00000000
     atom   10 type  3   force =     0.00000000    0.00000000    0.00000000
     atom   11 type  3   force =     0.00000000    0.00000000    0.00000000
     atom   12 type  3   force =     0.00000000    0.00000000    0.00000000
     atom   13 type  3   force =     0.00000000    0.00000000    0.00000000
     atom   14 type  3   force =     0.00000000    0.00000000    0.00000000
     atom   15 type  3   force =     0.00000000    0.00000000    0.00000000
     atom   16 type  3   force =     0.00000000    0.00000000    0.00000000
     atom   17 type  3   force =     0.00000000    0.00000000    0.00000000
     atom   18 type  3   force =     0.00000000    0.00000000    0.00000000
     atom   19 type  3   force =     0.00000000    0.00000000    0.00000000
     atom   20 type  3   force =     0.00000000    0.00000000    0.00000000
     atom   21 type  3   force =     0.00000000    0.00000000    0.00000000
     atom   22 type  3   force =     0.00000000    0.00000000    0.00000000
     atom   23 type  3   force =     0.00000000    0.00000000    0.00000000
     atom   24 type  3   force =     0.00000000    0.00000000    0.00000000
     atom   25 type  3   force =     0.00000000    0.00000000    0.00000000
     The SCF correction term to forces
     atom    1 type  2   force =    -0.00001039   -0.00000145   -0.00000061
     atom    2 type  1   force =     0.00000222   -0.00000069    0.00000003
     atom    3 type  1   force =    -0.00000519    0.00000051   -0.00000060
     atom    4 type  1   force =     0.00000579    0.00000035    0.00000077
     atom    5 type  1   force =    -0.00000158    0.00000004   -0.00000064
     atom    6 type  4   force =    -0.00000575   -0.00000002    0.00000019
     atom    7 type  4   force =     0.00000432    0.00000025    0.00000039
     atom    8 type  4   force =    -0.00000446    0.00000079   -0.00000017
     atom    9 type  4   force =     0.00000629   -0.00000024    0.00000084
     atom   10 type  3   force =    -0.00000793   -0.00000022   -0.00000147
     atom   11 type  3   force =     0.00000545   -0.00000001   -0.00000126
     atom   12 type  3   force =    -0.00000423    0.00000111    0.00000001
     atom   13 type  3   force =     0.00000905   -0.00000074   -0.00000357
     atom   14 type  3   force =     0.00000946   -0.00000045    0.00000157
     atom   15 type  3   force =    -0.00000800   -0.00000023    0.00000068
     atom   16 type  3   force =     0.00000655    0.00000021    0.00000035
     atom   17 type  3   force =    -0.00001036   -0.00000135    0.00000169
     atom   18 type  3   force =    -0.00000581    0.00000065    0.00000176
     atom   19 type  3   force =     0.00000386    0.00000197   -0.00000002
     atom   20 type  3   force =    -0.00000651    0.00000470   -0.00000308
     atom   21 type  3   force =     0.00000670    0.00000273    0.00000327
     atom   22 type  3   force =    -0.00000253   -0.00000141   -0.00000031
     atom   23 type  3   force =     0.00000562   -0.00000289    0.00000238
     atom   24 type  3   force =    -0.00000662    0.00000148   -0.00000067
     atom   25 type  3   force =     0.00000397   -0.00000135    0.00000033

     Total force =     0.253762     Total SCF correction =     0.000034


     Computing stress (Cartesian axis) and pressure


     negative rho (up, down):  0.000E+00 9.756E-04
          total   stress  (Ry/bohr**3)                   (kbar)     P=     -118.62
  -0.00133328   0.00012874  -0.00004819         -196.13       18.94       -7.09
   0.00012874  -0.00080021  -0.00007152           18.94     -117.72      -10.52
  -0.00004819  -0.00007152  -0.00028565           -7.09      -10.52      -42.02

     kinetic stress (kbar)  23693.24     42.39    -51.21
                               42.39  23907.93    -15.93
                              -51.21    -15.93  23872.97

     local   stress (kbar)  -7167.49   3335.25  -3843.78
                             3335.25 -12994.68   1677.74
                            -3843.78   1677.74  -6968.91

     nonloc. stress (kbar)  -6045.10      9.14      1.70
                                9.14  -5999.47      1.26
                                1.70      1.26  -5999.07

     hartree stress (kbar)  12704.07  -1326.41   1593.79
                            -1326.41  16120.92   -673.13
                             1593.79   -673.13  13108.47

     exc-cor stress (kbar)  -2516.88     -2.42      1.80
                               -2.42  -2522.63     -0.98
                                1.80     -0.98  -2520.68

     corecor stress (kbar)  -2821.16      0.34     -0.44
                                0.34  -2823.20      0.23
                               -0.44      0.23  -2824.79

     ewald   stress (kbar) -18042.81  -2039.35   2291.05
                            -2039.35 -15806.59   -999.70
                             2291.05   -999.70 -18710.01

     hubbard stress (kbar)      0.00      0.00      0.00
                                0.00      0.00      0.00
                                0.00      0.00      0.00

     DFT-D   stress (kbar)      0.00      0.00      0.00
                                0.00      0.00      0.00
                                0.00      0.00      0.00

     XDM     stress (kbar)      0.00      0.00      0.00
                                0.00      0.00      0.00
                                0.00      0.00      0.00

     dft-nl  stress (kbar)      0.00      0.00      0.00
                                0.00      0.00      0.00
                                0.00      0.00      0.00

     TS-vdW  stress (kbar)      0.00      0.00      0.00
                                0.00      0.00      0.00
                                0.00      0.00      0.00



     init_run     :   1290.67s CPU   1388.12s WALL (       1 calls)
     electrons    : 119728.55s CPU 131806.84s WALL (       1 calls)
     forces       :    197.39s CPU    217.45s WALL (       1 calls)
     stress       :    972.77s CPU    976.84s WALL (       1 calls)

     Called by init_run:
     wfcinit      :   1277.53s CPU   1370.53s WALL (       1 calls)
     wfcinit:atom :      1.16s CPU      1.24s WALL (     316 calls)
     wfcinit:wfcr :   1270.53s CPU   1362.97s WALL (     316 calls)
     potinit      :      5.61s CPU      7.17s WALL (       1 calls)
     hinit0       :      4.57s CPU      6.54s WALL (       1 calls)

     Called by electrons:
     c_bands      : 100410.23s CPU 110354.01s WALL (      41 calls)
     sum_band     :  19023.85s CPU  21106.63s WALL (      41 calls)
     v_of_rho     :    105.65s CPU    118.90s WALL (      42 calls)
     v_h          :      7.66s CPU      8.76s WALL (      42 calls)
     v_xc         :    103.30s CPU    115.46s WALL (      44 calls)
     newd         :     83.28s CPU    108.90s WALL (      42 calls)
     PAW_pot      :     23.19s CPU     26.32s WALL (      42 calls)
     mix_rho      :     66.79s CPU     75.10s WALL (      41 calls)

     Called by c_bands:
     init_us_2    :    206.93s CPU    231.32s WALL (   26860 calls)
     cegterg      :  99150.70s CPU 108928.01s WALL (   12956 calls)

     Called by sum_band:
     sum_band:wei :      0.70s CPU      0.83s WALL (      41 calls)
     sum_band:loo :  18839.21s CPU  20879.86s WALL (      41 calls)
     sum_band:buf :     58.43s CPU     62.49s WALL (   12956 calls)
     sum_band:ini :     92.83s CPU    105.58s WALL (   12956 calls)
     sum_band:cal :   1726.97s CPU   1919.08s WALL (   12956 calls)
     sum_band:bec :      8.79s CPU      9.58s WALL (   12956 calls)
     addusdens    :    155.05s CPU    195.01s WALL (      41 calls)
     addusd:skk   :      1.12s CPU      1.24s WALL (     123 calls)
     addusd:dgemm :     63.71s CPU     92.57s WALL (     246 calls)
     addusd:qvan2 :     88.40s CPU     98.65s WALL (     246 calls)

     Called by *egterg:
     cdiaghg      :   4312.92s CPU   4769.39s WALL (   46646 calls)
     cegterg:over :   5391.99s CPU   5888.23s WALL (   33690 calls)
     cegterg:upda :    749.60s CPU    840.06s WALL (   33690 calls)
     cegterg:last :   1657.93s CPU   1847.27s WALL (   21385 calls)
     h_psi        :  81417.58s CPU  89434.76s WALL (   46962 calls)
     s_psi        :   1800.54s CPU   1999.99s WALL (   46962 calls)
     g_psi        :     13.27s CPU     14.54s WALL (   33690 calls)

     Called by h_psi:
     h_psi:calbec :   4696.29s CPU   5145.59s WALL (   46962 calls)
     vloc_psi     :  74647.08s CPU  81962.81s WALL (   46962 calls)
     add_vuspsi   :   1983.59s CPU   2230.05s WALL (   46962 calls)

     General routines
     calbec       :   6837.85s CPU   7497.63s WALL (   61498 calls)
     fft          :    163.26s CPU    180.96s WALL (    1088 calls)
     ffts         :      2.88s CPU      3.45s WALL (     166 calls)
     fftw         :  91278.23s CPU 100422.83s WALL ( 7915086 calls)
     interpolate  :     12.74s CPU     14.43s WALL (      84 calls)

     Parallel routines
     fft_scatt_xy :    383.79s CPU    384.54s WALL ( 7916340 calls)
     fft_scatt_yz :  88508.14s CPU  97666.42s WALL ( 7916340 calls)

     PAW routines
     PAW_pot      :     23.19s CPU     26.32s WALL (      42 calls)

     PWSCF        :   1d 9h56m CPU   1d13h20m WALL


   This run was terminated on:  19:26:10  26Jan2023            

=------------------------------------------------------------------------------=
   JOB DONE.
=------------------------------------------------------------------------------=
Note: The following floating-point exceptions are signalling: IEEE_DENORMAL
Note: The following floating-point exceptions are signalling: IEEE_DENORMAL
Note: The following floating-point exceptions are signalling: IEEE_DENORMAL
Note: The following floating-point exceptions are signalling: IEEE_DENORMAL
Note: The following floating-point exceptions are signalling: IEEE_DENORMAL
Note: The following floating-point exceptions are signalling: IEEE_DENORMAL
Note: The following floating-point exceptions are signalling: IEEE_DENORMAL
Note: The following floating-point exceptions are signalling: IEEE_DENORMAL
Note: The following floating-point exceptions are signalling: IEEE_DENORMAL
Note: The following floating-point exceptions are signalling: IEEE_DENORMAL
Note: The following floating-point exceptions are signalling: IEEE_DENORMAL
Note: The following floating-point exceptions are signalling: IEEE_DENORMAL
Note: The following floating-point exceptions are signalling: IEEE_DENORMAL
Note: The following floating-point exceptions are signalling: IEEE_DENORMAL
Note: The following floating-point exceptions are signalling: IEEE_DENORMAL
Note: The following floating-point exceptions are signalling: IEEE_DENORMAL
Note: The following floating-point exceptions are signalling: IEEE_DENORMAL
Note: The following floating-point exceptions are signalling: IEEE_DENORMAL
Note: The following floating-point exceptions are signalling: IEEE_INVALID_FLAG IEEE_DENORMAL
Note: The following floating-point exceptions are signalling: IEEE_UNDERFLOW_FLAG IEEE_DENORMAL
Note: The following floating-point exceptions are signalling: IEEE_DENORMAL
Note: The following floating-point exceptions are signalling: IEEE_DENORMAL
