
     Program PWSCF v.6.7MaX starts on 19Jan2023 at 19:38:33 

     This program is part of the open-source Quantum ESPRESSO suite
     for quantum simulation of materials; please cite
         "P. Giannozzi et al., J. Phys.:Condens. Matter 21 395502 (2009);
         "P. Giannozzi et al., J. Phys.:Condens. Matter 29 465901 (2017);
          URL http://www.quantum-espresso.org", 
     in publications or presentations arising from this work. More details at
     http://www.quantum-espresso.org/quote

     Parallel version (MPI), running on    12 processors

     MPI processes distributed on     1 nodes
     R & G space division:  proc/nbgrp/npool/nimage =      12
     Reading input from scale_2dab-00.in

     Current dimensions of program PWSCF are:
     Max number of different atomic species (ntypx) = 10
     Max number of k-points (npk) =  40000
     Max angular momentum in pseudopotentials (lmaxx) =  3
     Message from routine read_pp_mesh:
     mesh size missing, using the one in header
     file Fe.pbe-spn-kjpaw_psl.0.2.1.UPF: wavefunction(s)  3D renormalized
     file O.pbe-n-kjpaw_psl.0.1.UPF: wavefunction(s)  2P renormalized

     Subspace diagonalization in iterative solution of the eigenvalue problem:
     a serial algorithm will be used


     Parallelization info
     --------------------
     sticks:   dense  smooth     PW     G-vecs:    dense   smooth      PW
     Min        1493     553    149                97373    21957    3096
     Max        1495     554    151                97374    21960    3097
     Sum       17927    6645   1805              1168479   263495   37159



     bravais-lattice index     =            0
     lattice parameter (alat)  =      18.6818  a.u.
     unit-cell volume          =    1949.7229 (a.u.)^3
     number of atoms/cell      =           25
     number of atomic types    =            4
     number of electrons       =       189.00
     number of Kohn-Sham states=          114
     kinetic-energy cutoff     =     100.0000  Ry
     charge density cutoff     =    1080.0000  Ry
     scf convergence threshold =      2.0E-10
     mixing beta               =       0.4000
     number of iterations used =            8  plain     mixing
     Exchange-correlation= PBE
                           (   1   4   3   4   0   0   0)

     celldm(1)=  18.681804  celldm(2)=   0.000000  celldm(3)=   0.000000
     celldm(4)=   0.000000  celldm(5)=   0.000000  celldm(6)=   0.000000

     crystal axes: (cart. coord. in units of alat)
               a(1) = (   1.000000   0.000000   0.000000 )  
               a(2) = (   0.000000   0.597590   0.000000 )  
               a(3) = (   0.000000   0.000000   0.500395 )  

     reciprocal axes: (cart. coord. in units 2 pi/alat)
               b(1) = (  1.000000  0.000000  0.000000 )  
               b(2) = (  0.000000  1.673388  0.000000 )  
               b(3) = (  0.000000  0.000000  1.998420 )  


     PseudoPot. # 1 for Fe read from file:
     /opt/QEpot/SSSP_precision_pseudos/Fe.pbe-spn-kjpaw_psl.0.2.1.UPF
     MD5 check sum: e86618425769142926afa95317d90200
     Pseudo is Projector augmented-wave + core cor, Zval = 16.0
     Generated using "atomic" code by A. Dal Corso  v.5.0.99 svn rev. 10869
     Shape of augmentation charge: PSQ
     Using radial grid of 1191 points,  6 beta functions with: 
                l(1) =   0
                l(2) =   0
                l(3) =   1
                l(4) =   1
                l(5) =   2
                l(6) =   2
     Q(r) pseudized with 0 coefficients 


     PseudoPot. # 2 for Na read from file:
     /opt/QEpot/SSSP_precision_pseudos/Na_ONCV_PBE-1.0.oncvpsp.upf
     MD5 check sum: 24a298df0a6742ae313db96548fdb2a4
     Pseudo is Norm-conserving, Zval =  9.0
     Generated using ONCVPSP code by D. R. Hamann
     Using radial grid of 1992 points,  4 beta functions with: 
                l(1) =   0
                l(2) =   0
                l(3) =   1
                l(4) =   1

     PseudoPot. # 3 for O  read from file:
     /opt/QEpot/SSSP_precision_pseudos/O.pbe-n-kjpaw_psl.0.1.UPF
     MD5 check sum: 0234752ac141de4415c5fc33072bef88
     Pseudo is Projector augmented-wave + core cor, Zval =  6.0
     Generated using "atomic" code by A. Dal Corso  v.5.0.99 svn rev. 10869
     Shape of augmentation charge: BESSEL
     Using radial grid of 1095 points,  4 beta functions with: 
                l(1) =   0
                l(2) =   0
                l(3) =   1
                l(4) =   1
     Q(r) pseudized with 0 coefficients 


     PseudoPot. # 4 for P  read from file:
     /opt/QEpot/SSSP_precision_pseudos/P.pbe-n-rrkjus_psl.1.0.0.UPF
     MD5 check sum: 8b930f418f0a4573dca56cd030ffe088
     Pseudo is Ultrasoft + core correction, Zval =  5.0
     Generated using "atomic" code by A. Dal Corso  v.5.1
     Using radial grid of 1147 points,  6 beta functions with: 
                l(1) =   0
                l(2) =   0
                l(3) =   1
                l(4) =   1
                l(5) =   2
                l(6) =   2
     Q(r) pseudized with 0 coefficients 


     atomic species   valence    mass     pseudopotential
        Fe            16.00    55.84500     Fe( 1.00)
        Na             9.00    22.98977     Na( 1.00)
        O              6.00    15.99940     O ( 1.00)
        P              5.00    30.97376     P ( 1.00)

     Starting magnetic structure 
     atomic species   magnetization
        Fe           0.312
        Na           0.000
        O            0.000
        P            0.000

     No symmetry found


                                    s                        frac. trans.

      isym =  1     identity                                     

 cryst.   s( 1) = (     1          0          0      )
                  (     0          1          0      )
                  (     0          0          1      )

 cart.    s( 1) = (  1.0000000  0.0000000  0.0000000 )
                  (  0.0000000  1.0000000  0.0000000 )
                  (  0.0000000  0.0000000  1.0000000 )


   Cartesian axes

     site n.     atom                  positions (alat units)
         1           Na  tau(   1) = (   0.9884170   0.5519173   0.4565076  )
         2           Fe  tau(   2) = (   0.2939190   0.4594911   0.4520871  )
         3           Fe  tau(   3) = (   0.2177320   0.1644388   0.2393010  )
         4           Fe  tau(   4) = (   0.7086600   0.1410366   0.0336456  )
         5           Fe  tau(   5) = (   0.7798900   0.4274680   0.2387356  )
         6           P   tau(   6) = (   0.1012260   0.4335879   0.1844862  )
         7           P   tau(   7) = (   0.3924930   0.1530332   0.4598512  )
         8           P   tau(   8) = (   0.9016400   0.1713673   0.3012760  )
         9           P   tau(   9) = (   0.6079410   0.4475058   0.0204552  )
        10           O   tau(  10) = (   0.1416670   0.4473648   0.3339138  )
        11           O   tau(  11) = (   0.3552620   0.1488776   0.1097847  )
        12           O   tau(  12) = (   0.8585950   0.1609824   0.1522272  )
        13           O   tau(  13) = (   0.6446380   0.4498639   0.3705932  )
        14           O   tau(  14) = (   0.4614060   0.4495209   0.0394301  )
        15           O   tau(  15) = (   0.0448410   0.1302746   0.3193202  )
        16           O   tau(  16) = (   0.5395180   0.1519767   0.4436539  )
        17           O   tau(  17) = (   0.9559730   0.4694917   0.1674978  )
        18           O   tau(  18) = (   0.1791430   0.5315987   0.0953563  )
        19           O   tau(  19) = (   0.3275030   0.0391284   0.3779035  )
        20           O   tau(  20) = (   0.8731620   0.3072993   0.3594774  )
        21           O   tau(  21) = (   0.6721330   0.3295756   0.0974895  )
        22           O   tau(  22) = (   0.8183970   0.0746061   0.3872579  )
        23           O   tau(  23) = (   0.6754720   0.5598432   0.1020356  )
        24           O   tau(  24) = (   0.1341870   0.2984304   0.1292546  )
        25           O   tau(  25) = (   0.3262540   0.2700252   0.3832607  )

   Crystallographic axes

     site n.     atom                  positions (cryst. coord.)
         1           Na  tau(   1) = (  0.9884170  0.9235720  0.9122940  )
         2           Fe  tau(   2) = (  0.2939190  0.7689070  0.9034600  )
         3           Fe  tau(   3) = (  0.2177320  0.2751700  0.4782240  )
         4           Fe  tau(   4) = (  0.7086600  0.2360090  0.0672380  )
         5           Fe  tau(   5) = (  0.7798900  0.7153200  0.4770940  )
         6           P   tau(   6) = (  0.1012260  0.7255610  0.3686810  )
         7           P   tau(   7) = (  0.3924930  0.2560840  0.9189760  )
         8           P   tau(   8) = (  0.9016400  0.2867640  0.6020760  )
         9           P   tau(   9) = (  0.6079410  0.7488510  0.0408780  )
        10           O   tau(  10) = (  0.1416670  0.7486150  0.6673000  )
        11           O   tau(  11) = (  0.3552620  0.2491300  0.2193960  )
        12           O   tau(  12) = (  0.8585950  0.2693860  0.3042140  )
        13           O   tau(  13) = (  0.6446380  0.7527970  0.7406010  )
        14           O   tau(  14) = (  0.4614060  0.7522230  0.0787980  )
        15           O   tau(  15) = (  0.0448410  0.2180000  0.6381360  )
        16           O   tau(  16) = (  0.5395180  0.2543160  0.8866070  )
        17           O   tau(  17) = (  0.9559730  0.7856420  0.3347310  )
        18           O   tau(  18) = (  0.1791430  0.8895710  0.1905620  )
        19           O   tau(  19) = (  0.3275030  0.0654770  0.7552100  )
        20           O   tau(  20) = (  0.8731620  0.5142310  0.7183870  )
        21           O   tau(  21) = (  0.6721330  0.5515080  0.1948250  )
        22           O   tau(  22) = (  0.8183970  0.1248450  0.7739040  )
        23           O   tau(  23) = (  0.6754720  0.9368350  0.2039100  )
        24           O   tau(  24) = (  0.1341870  0.4993900  0.2583050  )
        25           O   tau(  25) = (  0.3262540  0.4518570  0.7659160  )

     number of k points=   158  Marzari-Vanderbilt smearing, width (Ry)=  0.0073
                       cart. coord. in units 2pi/alat
        k(    1) = (   0.0000000   0.0000000   0.0000000), wk =   0.0031746
        k(    2) = (   0.0000000   0.0000000   0.2220467), wk =   0.0063492
        k(    3) = (   0.0000000   0.0000000   0.4440934), wk =   0.0063492
        k(    4) = (   0.0000000   0.0000000   0.6661401), wk =   0.0063492
        k(    5) = (   0.0000000   0.0000000   0.8881868), wk =   0.0063492
        k(    6) = (   0.0000000   0.2390555   0.0000000), wk =   0.0063492
        k(    7) = (   0.0000000   0.2390555   0.2220467), wk =   0.0063492
        k(    8) = (   0.0000000   0.2390555   0.4440934), wk =   0.0063492
        k(    9) = (   0.0000000   0.2390555   0.6661401), wk =   0.0063492
        k(   10) = (   0.0000000   0.2390555   0.8881868), wk =   0.0063492
        k(   11) = (   0.0000000   0.4781110   0.0000000), wk =   0.0063492
        k(   12) = (   0.0000000   0.4781110   0.2220467), wk =   0.0063492
        k(   13) = (   0.0000000   0.4781110   0.4440934), wk =   0.0063492
        k(   14) = (   0.0000000   0.4781110   0.6661401), wk =   0.0063492
        k(   15) = (   0.0000000   0.4781110   0.8881868), wk =   0.0063492
        k(   16) = (   0.0000000   0.7171664   0.0000000), wk =   0.0063492
        k(   17) = (   0.0000000   0.7171664   0.2220467), wk =   0.0063492
        k(   18) = (   0.0000000   0.7171664   0.4440934), wk =   0.0063492
        k(   19) = (   0.0000000   0.7171664   0.6661401), wk =   0.0063492
        k(   20) = (   0.0000000   0.7171664   0.8881868), wk =   0.0063492
        k(   21) = (   0.2000000   0.0000000   0.0000000), wk =   0.0063492
        k(   22) = (   0.2000000   0.0000000   0.2220467), wk =   0.0063492
        k(   23) = (   0.2000000   0.0000000   0.4440934), wk =   0.0063492
        k(   24) = (   0.2000000   0.0000000   0.6661401), wk =   0.0063492
        k(   25) = (   0.2000000   0.0000000   0.8881868), wk =   0.0063492
        k(   26) = (   0.2000000   0.2390555   0.0000000), wk =   0.0063492
        k(   27) = (   0.2000000   0.2390555   0.2220467), wk =   0.0063492
        k(   28) = (   0.2000000   0.2390555   0.4440934), wk =   0.0063492
        k(   29) = (   0.2000000   0.2390555   0.6661401), wk =   0.0063492
        k(   30) = (   0.2000000   0.2390555   0.8881868), wk =   0.0063492
        k(   31) = (   0.2000000   0.4781110   0.0000000), wk =   0.0063492
        k(   32) = (   0.2000000   0.4781110   0.2220467), wk =   0.0063492
        k(   33) = (   0.2000000   0.4781110   0.4440934), wk =   0.0063492
        k(   34) = (   0.2000000   0.4781110   0.6661401), wk =   0.0063492
        k(   35) = (   0.2000000   0.4781110   0.8881868), wk =   0.0063492
        k(   36) = (   0.2000000   0.7171664   0.0000000), wk =   0.0063492
        k(   37) = (   0.2000000   0.7171664   0.2220467), wk =   0.0063492
        k(   38) = (   0.2000000   0.7171664   0.4440934), wk =   0.0063492
        k(   39) = (   0.2000000   0.7171664   0.6661401), wk =   0.0063492
        k(   40) = (   0.2000000   0.7171664   0.8881868), wk =   0.0063492
        k(   41) = (   0.4000000   0.0000000   0.0000000), wk =   0.0063492
        k(   42) = (   0.4000000   0.0000000   0.2220467), wk =   0.0063492
        k(   43) = (   0.4000000   0.0000000   0.4440934), wk =   0.0063492
        k(   44) = (   0.4000000   0.0000000   0.6661401), wk =   0.0063492
        k(   45) = (   0.4000000   0.0000000   0.8881868), wk =   0.0063492
        k(   46) = (   0.4000000   0.2390555   0.0000000), wk =   0.0063492
        k(   47) = (   0.4000000   0.2390555   0.2220467), wk =   0.0063492
        k(   48) = (   0.4000000   0.2390555   0.4440934), wk =   0.0063492
        k(   49) = (   0.4000000   0.2390555   0.6661401), wk =   0.0063492
        k(   50) = (   0.4000000   0.2390555   0.8881868), wk =   0.0063492
        k(   51) = (   0.4000000   0.4781110   0.0000000), wk =   0.0063492
        k(   52) = (   0.4000000   0.4781110   0.2220467), wk =   0.0063492
        k(   53) = (   0.4000000   0.4781110   0.4440934), wk =   0.0063492
        k(   54) = (   0.4000000   0.4781110   0.6661401), wk =   0.0063492
        k(   55) = (   0.4000000   0.4781110   0.8881868), wk =   0.0063492
        k(   56) = (   0.4000000   0.7171664   0.0000000), wk =   0.0063492
        k(   57) = (   0.4000000   0.7171664   0.2220467), wk =   0.0063492
        k(   58) = (   0.4000000   0.7171664   0.4440934), wk =   0.0063492
        k(   59) = (   0.4000000   0.7171664   0.6661401), wk =   0.0063492
        k(   60) = (   0.4000000   0.7171664   0.8881868), wk =   0.0063492
        k(   61) = (   0.0000000  -0.2390555   0.2220467), wk =   0.0063492
        k(   62) = (   0.0000000  -0.2390555   0.4440934), wk =   0.0063492
        k(   63) = (   0.0000000  -0.2390555   0.6661401), wk =   0.0063492
        k(   64) = (   0.0000000  -0.2390555   0.8881868), wk =   0.0063492
        k(   65) = (   0.0000000  -0.4781110   0.2220467), wk =   0.0063492
        k(   66) = (   0.0000000  -0.4781110   0.4440934), wk =   0.0063492
        k(   67) = (   0.0000000  -0.4781110   0.6661401), wk =   0.0063492
        k(   68) = (   0.0000000  -0.4781110   0.8881868), wk =   0.0063492
        k(   69) = (   0.0000000  -0.7171664   0.2220467), wk =   0.0063492
        k(   70) = (   0.0000000  -0.7171664   0.4440934), wk =   0.0063492
        k(   71) = (   0.0000000  -0.7171664   0.6661401), wk =   0.0063492
        k(   72) = (   0.0000000  -0.7171664   0.8881868), wk =   0.0063492
        k(   73) = (  -0.2000000   0.0000000   0.2220467), wk =   0.0063492
        k(   74) = (  -0.2000000   0.0000000   0.4440934), wk =   0.0063492
        k(   75) = (  -0.2000000   0.0000000   0.6661401), wk =   0.0063492
        k(   76) = (  -0.2000000   0.0000000   0.8881868), wk =   0.0063492
        k(   77) = (  -0.2000000   0.2390555   0.0000000), wk =   0.0063492
        k(   78) = (  -0.2000000  -0.2390555   0.2220467), wk =   0.0063492
        k(   79) = (  -0.2000000   0.2390555  -0.2220467), wk =   0.0063492
        k(   80) = (   0.2000000  -0.2390555  -0.2220467), wk =   0.0063492
        k(   81) = (  -0.2000000  -0.2390555   0.4440934), wk =   0.0063492
        k(   82) = (  -0.2000000   0.2390555  -0.4440934), wk =   0.0063492
        k(   83) = (   0.2000000  -0.2390555  -0.4440934), wk =   0.0063492
        k(   84) = (  -0.2000000  -0.2390555   0.6661401), wk =   0.0063492
        k(   85) = (  -0.2000000   0.2390555  -0.6661401), wk =   0.0063492
        k(   86) = (   0.2000000  -0.2390555  -0.6661401), wk =   0.0063492
        k(   87) = (  -0.2000000  -0.2390555   0.8881868), wk =   0.0063492
        k(   88) = (  -0.2000000   0.2390555  -0.8881868), wk =   0.0063492
        k(   89) = (   0.2000000  -0.2390555  -0.8881868), wk =   0.0063492
        k(   90) = (  -0.2000000   0.4781110   0.0000000), wk =   0.0063492
        k(   91) = (  -0.2000000  -0.4781110   0.2220467), wk =   0.0063492
        k(   92) = (  -0.2000000   0.4781110  -0.2220467), wk =   0.0063492
        k(   93) = (   0.2000000  -0.4781110  -0.2220467), wk =   0.0063492
        k(   94) = (  -0.2000000  -0.4781110   0.4440934), wk =   0.0063492
        k(   95) = (  -0.2000000   0.4781110  -0.4440934), wk =   0.0063492
        k(   96) = (   0.2000000  -0.4781110  -0.4440934), wk =   0.0063492
        k(   97) = (  -0.2000000  -0.4781110   0.6661401), wk =   0.0063492
        k(   98) = (  -0.2000000   0.4781110  -0.6661401), wk =   0.0063492
        k(   99) = (   0.2000000  -0.4781110  -0.6661401), wk =   0.0063492
        k(  100) = (  -0.2000000  -0.4781110   0.8881868), wk =   0.0063492
        k(  101) = (  -0.2000000   0.4781110  -0.8881868), wk =   0.0063492
        k(  102) = (   0.2000000  -0.4781110  -0.8881868), wk =   0.0063492
        k(  103) = (  -0.2000000   0.7171664   0.0000000), wk =   0.0063492
        k(  104) = (  -0.2000000  -0.7171664   0.2220467), wk =   0.0063492
        k(  105) = (  -0.2000000   0.7171664  -0.2220467), wk =   0.0063492
        k(  106) = (   0.2000000  -0.7171664  -0.2220467), wk =   0.0063492
        k(  107) = (  -0.2000000  -0.7171664   0.4440934), wk =   0.0063492
        k(  108) = (  -0.2000000   0.7171664  -0.4440934), wk =   0.0063492
        k(  109) = (   0.2000000  -0.7171664  -0.4440934), wk =   0.0063492
        k(  110) = (  -0.2000000  -0.7171664   0.6661401), wk =   0.0063492
        k(  111) = (  -0.2000000   0.7171664  -0.6661401), wk =   0.0063492
        k(  112) = (   0.2000000  -0.7171664  -0.6661401), wk =   0.0063492
        k(  113) = (  -0.2000000  -0.7171664   0.8881868), wk =   0.0063492
        k(  114) = (  -0.2000000   0.7171664  -0.8881868), wk =   0.0063492
        k(  115) = (   0.2000000  -0.7171664  -0.8881868), wk =   0.0063492
        k(  116) = (  -0.4000000   0.0000000   0.2220467), wk =   0.0063492
        k(  117) = (  -0.4000000   0.0000000   0.4440934), wk =   0.0063492
        k(  118) = (  -0.4000000   0.0000000   0.6661401), wk =   0.0063492
        k(  119) = (  -0.4000000   0.0000000   0.8881868), wk =   0.0063492
        k(  120) = (  -0.4000000   0.2390555   0.0000000), wk =   0.0063492
        k(  121) = (  -0.4000000  -0.2390555   0.2220467), wk =   0.0063492
        k(  122) = (  -0.4000000   0.2390555  -0.2220467), wk =   0.0063492
        k(  123) = (   0.4000000  -0.2390555  -0.2220467), wk =   0.0063492
        k(  124) = (  -0.4000000  -0.2390555   0.4440934), wk =   0.0063492
        k(  125) = (  -0.4000000   0.2390555  -0.4440934), wk =   0.0063492
        k(  126) = (   0.4000000  -0.2390555  -0.4440934), wk =   0.0063492
        k(  127) = (  -0.4000000  -0.2390555   0.6661401), wk =   0.0063492
        k(  128) = (  -0.4000000   0.2390555  -0.6661401), wk =   0.0063492
        k(  129) = (   0.4000000  -0.2390555  -0.6661401), wk =   0.0063492
        k(  130) = (  -0.4000000  -0.2390555   0.8881868), wk =   0.0063492
        k(  131) = (  -0.4000000   0.2390555  -0.8881868), wk =   0.0063492
        k(  132) = (   0.4000000  -0.2390555  -0.8881868), wk =   0.0063492
        k(  133) = (  -0.4000000   0.4781110   0.0000000), wk =   0.0063492
        k(  134) = (  -0.4000000  -0.4781110   0.2220467), wk =   0.0063492
        k(  135) = (  -0.4000000   0.4781110  -0.2220467), wk =   0.0063492
        k(  136) = (   0.4000000  -0.4781110  -0.2220467), wk =   0.0063492
        k(  137) = (  -0.4000000  -0.4781110   0.4440934), wk =   0.0063492
        k(  138) = (  -0.4000000   0.4781110  -0.4440934), wk =   0.0063492
        k(  139) = (   0.4000000  -0.4781110  -0.4440934), wk =   0.0063492
        k(  140) = (  -0.4000000  -0.4781110   0.6661401), wk =   0.0063492
        k(  141) = (  -0.4000000   0.4781110  -0.6661401), wk =   0.0063492
        k(  142) = (   0.4000000  -0.4781110  -0.6661401), wk =   0.0063492
        k(  143) = (  -0.4000000  -0.4781110   0.8881868), wk =   0.0063492
        k(  144) = (  -0.4000000   0.4781110  -0.8881868), wk =   0.0063492
        k(  145) = (   0.4000000  -0.4781110  -0.8881868), wk =   0.0063492
        k(  146) = (  -0.4000000   0.7171664   0.0000000), wk =   0.0063492
        k(  147) = (  -0.4000000  -0.7171664   0.2220467), wk =   0.0063492
        k(  148) = (  -0.4000000   0.7171664  -0.2220467), wk =   0.0063492
        k(  149) = (   0.4000000  -0.7171664  -0.2220467), wk =   0.0063492
        k(  150) = (  -0.4000000  -0.7171664   0.4440934), wk =   0.0063492
        k(  151) = (  -0.4000000   0.7171664  -0.4440934), wk =   0.0063492
        k(  152) = (   0.4000000  -0.7171664  -0.4440934), wk =   0.0063492
        k(  153) = (  -0.4000000  -0.7171664   0.6661401), wk =   0.0063492
        k(  154) = (  -0.4000000   0.7171664  -0.6661401), wk =   0.0063492
        k(  155) = (   0.4000000  -0.7171664  -0.6661401), wk =   0.0063492
        k(  156) = (  -0.4000000  -0.7171664   0.8881868), wk =   0.0063492
        k(  157) = (  -0.4000000   0.7171664  -0.8881868), wk =   0.0063492
        k(  158) = (   0.4000000  -0.7171664  -0.8881868), wk =   0.0063492

                       cryst. coord.
        k(    1) = (   0.0000000   0.0000000   0.0000000), wk =   0.0031746
        k(    2) = (   0.0000000   0.0000000   0.1111111), wk =   0.0063492
        k(    3) = (   0.0000000   0.0000000   0.2222222), wk =   0.0063492
        k(    4) = (   0.0000000   0.0000000   0.3333333), wk =   0.0063492
        k(    5) = (   0.0000000   0.0000000   0.4444444), wk =   0.0063492
        k(    6) = (   0.0000000   0.1428571   0.0000000), wk =   0.0063492
        k(    7) = (   0.0000000   0.1428571   0.1111111), wk =   0.0063492
        k(    8) = (   0.0000000   0.1428571   0.2222222), wk =   0.0063492
        k(    9) = (   0.0000000   0.1428571   0.3333333), wk =   0.0063492
        k(   10) = (   0.0000000   0.1428571   0.4444444), wk =   0.0063492
        k(   11) = (   0.0000000   0.2857143   0.0000000), wk =   0.0063492
        k(   12) = (   0.0000000   0.2857143   0.1111111), wk =   0.0063492
        k(   13) = (   0.0000000   0.2857143   0.2222222), wk =   0.0063492
        k(   14) = (   0.0000000   0.2857143   0.3333333), wk =   0.0063492
        k(   15) = (   0.0000000   0.2857143   0.4444444), wk =   0.0063492
        k(   16) = (   0.0000000   0.4285714   0.0000000), wk =   0.0063492
        k(   17) = (   0.0000000   0.4285714   0.1111111), wk =   0.0063492
        k(   18) = (   0.0000000   0.4285714   0.2222222), wk =   0.0063492
        k(   19) = (   0.0000000   0.4285714   0.3333333), wk =   0.0063492
        k(   20) = (   0.0000000   0.4285714   0.4444444), wk =   0.0063492
        k(   21) = (   0.2000000   0.0000000   0.0000000), wk =   0.0063492
        k(   22) = (   0.2000000   0.0000000   0.1111111), wk =   0.0063492
        k(   23) = (   0.2000000   0.0000000   0.2222222), wk =   0.0063492
        k(   24) = (   0.2000000   0.0000000   0.3333333), wk =   0.0063492
        k(   25) = (   0.2000000   0.0000000   0.4444444), wk =   0.0063492
        k(   26) = (   0.2000000   0.1428571   0.0000000), wk =   0.0063492
        k(   27) = (   0.2000000   0.1428571   0.1111111), wk =   0.0063492
        k(   28) = (   0.2000000   0.1428571   0.2222222), wk =   0.0063492
        k(   29) = (   0.2000000   0.1428571   0.3333333), wk =   0.0063492
        k(   30) = (   0.2000000   0.1428571   0.4444444), wk =   0.0063492
        k(   31) = (   0.2000000   0.2857143   0.0000000), wk =   0.0063492
        k(   32) = (   0.2000000   0.2857143   0.1111111), wk =   0.0063492
        k(   33) = (   0.2000000   0.2857143   0.2222222), wk =   0.0063492
        k(   34) = (   0.2000000   0.2857143   0.3333333), wk =   0.0063492
        k(   35) = (   0.2000000   0.2857143   0.4444444), wk =   0.0063492
        k(   36) = (   0.2000000   0.4285714   0.0000000), wk =   0.0063492
        k(   37) = (   0.2000000   0.4285714   0.1111111), wk =   0.0063492
        k(   38) = (   0.2000000   0.4285714   0.2222222), wk =   0.0063492
        k(   39) = (   0.2000000   0.4285714   0.3333333), wk =   0.0063492
        k(   40) = (   0.2000000   0.4285714   0.4444444), wk =   0.0063492
        k(   41) = (   0.4000000   0.0000000   0.0000000), wk =   0.0063492
        k(   42) = (   0.4000000   0.0000000   0.1111111), wk =   0.0063492
        k(   43) = (   0.4000000   0.0000000   0.2222222), wk =   0.0063492
        k(   44) = (   0.4000000   0.0000000   0.3333333), wk =   0.0063492
        k(   45) = (   0.4000000   0.0000000   0.4444444), wk =   0.0063492
        k(   46) = (   0.4000000   0.1428571   0.0000000), wk =   0.0063492
        k(   47) = (   0.4000000   0.1428571   0.1111111), wk =   0.0063492
        k(   48) = (   0.4000000   0.1428571   0.2222222), wk =   0.0063492
        k(   49) = (   0.4000000   0.1428571   0.3333333), wk =   0.0063492
        k(   50) = (   0.4000000   0.1428571   0.4444444), wk =   0.0063492
        k(   51) = (   0.4000000   0.2857143   0.0000000), wk =   0.0063492
        k(   52) = (   0.4000000   0.2857143   0.1111111), wk =   0.0063492
        k(   53) = (   0.4000000   0.2857143   0.2222222), wk =   0.0063492
        k(   54) = (   0.4000000   0.2857143   0.3333333), wk =   0.0063492
        k(   55) = (   0.4000000   0.2857143   0.4444444), wk =   0.0063492
        k(   56) = (   0.4000000   0.4285714   0.0000000), wk =   0.0063492
        k(   57) = (   0.4000000   0.4285714   0.1111111), wk =   0.0063492
        k(   58) = (   0.4000000   0.4285714   0.2222222), wk =   0.0063492
        k(   59) = (   0.4000000   0.4285714   0.3333333), wk =   0.0063492
        k(   60) = (   0.4000000   0.4285714   0.4444444), wk =   0.0063492
        k(   61) = (   0.0000000  -0.1428571   0.1111111), wk =   0.0063492
        k(   62) = (   0.0000000  -0.1428571   0.2222222), wk =   0.0063492
        k(   63) = (   0.0000000  -0.1428571   0.3333333), wk =   0.0063492
        k(   64) = (   0.0000000  -0.1428571   0.4444444), wk =   0.0063492
        k(   65) = (   0.0000000  -0.2857143   0.1111111), wk =   0.0063492
        k(   66) = (   0.0000000  -0.2857143   0.2222222), wk =   0.0063492
        k(   67) = (   0.0000000  -0.2857143   0.3333333), wk =   0.0063492
        k(   68) = (   0.0000000  -0.2857143   0.4444444), wk =   0.0063492
        k(   69) = (   0.0000000  -0.4285714   0.1111111), wk =   0.0063492
        k(   70) = (   0.0000000  -0.4285714   0.2222222), wk =   0.0063492
        k(   71) = (   0.0000000  -0.4285714   0.3333333), wk =   0.0063492
        k(   72) = (   0.0000000  -0.4285714   0.4444444), wk =   0.0063492
        k(   73) = (  -0.2000000   0.0000000   0.1111111), wk =   0.0063492
        k(   74) = (  -0.2000000   0.0000000   0.2222222), wk =   0.0063492
        k(   75) = (  -0.2000000   0.0000000   0.3333333), wk =   0.0063492
        k(   76) = (  -0.2000000   0.0000000   0.4444444), wk =   0.0063492
        k(   77) = (  -0.2000000   0.1428571   0.0000000), wk =   0.0063492
        k(   78) = (  -0.2000000  -0.1428571   0.1111111), wk =   0.0063492
        k(   79) = (  -0.2000000   0.1428571  -0.1111111), wk =   0.0063492
        k(   80) = (   0.2000000  -0.1428571  -0.1111111), wk =   0.0063492
        k(   81) = (  -0.2000000  -0.1428571   0.2222222), wk =   0.0063492
        k(   82) = (  -0.2000000   0.1428571  -0.2222222), wk =   0.0063492
        k(   83) = (   0.2000000  -0.1428571  -0.2222222), wk =   0.0063492
        k(   84) = (  -0.2000000  -0.1428571   0.3333333), wk =   0.0063492
        k(   85) = (  -0.2000000   0.1428571  -0.3333333), wk =   0.0063492
        k(   86) = (   0.2000000  -0.1428571  -0.3333333), wk =   0.0063492
        k(   87) = (  -0.2000000  -0.1428571   0.4444444), wk =   0.0063492
        k(   88) = (  -0.2000000   0.1428571  -0.4444444), wk =   0.0063492
        k(   89) = (   0.2000000  -0.1428571  -0.4444444), wk =   0.0063492
        k(   90) = (  -0.2000000   0.2857143   0.0000000), wk =   0.0063492
        k(   91) = (  -0.2000000  -0.2857143   0.1111111), wk =   0.0063492
        k(   92) = (  -0.2000000   0.2857143  -0.1111111), wk =   0.0063492
        k(   93) = (   0.2000000  -0.2857143  -0.1111111), wk =   0.0063492
        k(   94) = (  -0.2000000  -0.2857143   0.2222222), wk =   0.0063492
        k(   95) = (  -0.2000000   0.2857143  -0.2222222), wk =   0.0063492
        k(   96) = (   0.2000000  -0.2857143  -0.2222222), wk =   0.0063492
        k(   97) = (  -0.2000000  -0.2857143   0.3333333), wk =   0.0063492
        k(   98) = (  -0.2000000   0.2857143  -0.3333333), wk =   0.0063492
        k(   99) = (   0.2000000  -0.2857143  -0.3333333), wk =   0.0063492
        k(  100) = (  -0.2000000  -0.2857143   0.4444444), wk =   0.0063492
        k(  101) = (  -0.2000000   0.2857143  -0.4444444), wk =   0.0063492
        k(  102) = (   0.2000000  -0.2857143  -0.4444444), wk =   0.0063492
        k(  103) = (  -0.2000000   0.4285714   0.0000000), wk =   0.0063492
        k(  104) = (  -0.2000000  -0.4285714   0.1111111), wk =   0.0063492
        k(  105) = (  -0.2000000   0.4285714  -0.1111111), wk =   0.0063492
        k(  106) = (   0.2000000  -0.4285714  -0.1111111), wk =   0.0063492
        k(  107) = (  -0.2000000  -0.4285714   0.2222222), wk =   0.0063492
        k(  108) = (  -0.2000000   0.4285714  -0.2222222), wk =   0.0063492
        k(  109) = (   0.2000000  -0.4285714  -0.2222222), wk =   0.0063492
        k(  110) = (  -0.2000000  -0.4285714   0.3333333), wk =   0.0063492
        k(  111) = (  -0.2000000   0.4285714  -0.3333333), wk =   0.0063492
        k(  112) = (   0.2000000  -0.4285714  -0.3333333), wk =   0.0063492
        k(  113) = (  -0.2000000  -0.4285714   0.4444444), wk =   0.0063492
        k(  114) = (  -0.2000000   0.4285714  -0.4444444), wk =   0.0063492
        k(  115) = (   0.2000000  -0.4285714  -0.4444444), wk =   0.0063492
        k(  116) = (  -0.4000000   0.0000000   0.1111111), wk =   0.0063492
        k(  117) = (  -0.4000000   0.0000000   0.2222222), wk =   0.0063492
        k(  118) = (  -0.4000000   0.0000000   0.3333333), wk =   0.0063492
        k(  119) = (  -0.4000000   0.0000000   0.4444444), wk =   0.0063492
        k(  120) = (  -0.4000000   0.1428571   0.0000000), wk =   0.0063492
        k(  121) = (  -0.4000000  -0.1428571   0.1111111), wk =   0.0063492
        k(  122) = (  -0.4000000   0.1428571  -0.1111111), wk =   0.0063492
        k(  123) = (   0.4000000  -0.1428571  -0.1111111), wk =   0.0063492
        k(  124) = (  -0.4000000  -0.1428571   0.2222222), wk =   0.0063492
        k(  125) = (  -0.4000000   0.1428571  -0.2222222), wk =   0.0063492
        k(  126) = (   0.4000000  -0.1428571  -0.2222222), wk =   0.0063492
        k(  127) = (  -0.4000000  -0.1428571   0.3333333), wk =   0.0063492
        k(  128) = (  -0.4000000   0.1428571  -0.3333333), wk =   0.0063492
        k(  129) = (   0.4000000  -0.1428571  -0.3333333), wk =   0.0063492
        k(  130) = (  -0.4000000  -0.1428571   0.4444444), wk =   0.0063492
        k(  131) = (  -0.4000000   0.1428571  -0.4444444), wk =   0.0063492
        k(  132) = (   0.4000000  -0.1428571  -0.4444444), wk =   0.0063492
        k(  133) = (  -0.4000000   0.2857143   0.0000000), wk =   0.0063492
        k(  134) = (  -0.4000000  -0.2857143   0.1111111), wk =   0.0063492
        k(  135) = (  -0.4000000   0.2857143  -0.1111111), wk =   0.0063492
        k(  136) = (   0.4000000  -0.2857143  -0.1111111), wk =   0.0063492
        k(  137) = (  -0.4000000  -0.2857143   0.2222222), wk =   0.0063492
        k(  138) = (  -0.4000000   0.2857143  -0.2222222), wk =   0.0063492
        k(  139) = (   0.4000000  -0.2857143  -0.2222222), wk =   0.0063492
        k(  140) = (  -0.4000000  -0.2857143   0.3333333), wk =   0.0063492
        k(  141) = (  -0.4000000   0.2857143  -0.3333333), wk =   0.0063492
        k(  142) = (   0.4000000  -0.2857143  -0.3333333), wk =   0.0063492
        k(  143) = (  -0.4000000  -0.2857143   0.4444444), wk =   0.0063492
        k(  144) = (  -0.4000000   0.2857143  -0.4444444), wk =   0.0063492
        k(  145) = (   0.4000000  -0.2857143  -0.4444444), wk =   0.0063492
        k(  146) = (  -0.4000000   0.4285714   0.0000000), wk =   0.0063492
        k(  147) = (  -0.4000000  -0.4285714   0.1111111), wk =   0.0063492
        k(  148) = (  -0.4000000   0.4285714  -0.1111111), wk =   0.0063492
        k(  149) = (   0.4000000  -0.4285714  -0.1111111), wk =   0.0063492
        k(  150) = (  -0.4000000  -0.4285714   0.2222222), wk =   0.0063492
        k(  151) = (  -0.4000000   0.4285714  -0.2222222), wk =   0.0063492
        k(  152) = (   0.4000000  -0.4285714  -0.2222222), wk =   0.0063492
        k(  153) = (  -0.4000000  -0.4285714   0.3333333), wk =   0.0063492
        k(  154) = (  -0.4000000   0.4285714  -0.3333333), wk =   0.0063492
        k(  155) = (   0.4000000  -0.4285714  -0.3333333), wk =   0.0063492
        k(  156) = (  -0.4000000  -0.4285714   0.4444444), wk =   0.0063492
        k(  157) = (  -0.4000000   0.4285714  -0.4444444), wk =   0.0063492
        k(  158) = (   0.4000000  -0.4285714  -0.4444444), wk =   0.0063492

     Dense  grid:  1168479 G-vectors     FFT dimensions: ( 200, 120, 100)

     Smooth grid:   263495 G-vectors     FFT dimensions: ( 120,  72,  60)

     Dynamical RAM for                 wfc:       4.77 MB

     Dynamical RAM for     wfc (w. buffer):    1512.55 MB

     Dynamical RAM for           str. fact:       5.94 MB

     Dynamical RAM for           local pot:       0.00 MB

     Dynamical RAM for          nlocal pot:      11.72 MB

     Dynamical RAM for                qrad:      10.54 MB

     Dynamical RAM for          rho,v,vnew:      18.80 MB

     Dynamical RAM for               rhoin:       6.27 MB

     Dynamical RAM for            rho*nmix:      47.55 MB

     Dynamical RAM for           G-vectors:       5.74 MB

     Dynamical RAM for          h,s,v(r/c):       2.38 MB

     Dynamical RAM for          <psi|beta>:       0.49 MB

     Dynamical RAM for                 psi:       9.54 MB

     Dynamical RAM for                hpsi:       9.54 MB

     Dynamical RAM for                spsi:       9.54 MB

     Dynamical RAM for      wfcinit/wfcrot:      11.90 MB

     Dynamical RAM for           addusdens:     301.62 MB

     Dynamical RAM for          addusforce:     346.32 MB

     Dynamical RAM for         addusstress:     300.87 MB

     Estimated static dynamical RAM per process >       1.60 GB

     Estimated max dynamical RAM per process >       1.94 GB

     Estimated total dynamical RAM >      23.24 GB

     Check: negative core charge=   -0.000003
     Generating pointlists ...
     new r_m :   0.0781 (alat units)  1.4591 (a.u.) for type    1
     new r_m :   0.0905 (alat units)  1.6913 (a.u.) for type    2
     new r_m :   0.0610 (alat units)  1.1388 (a.u.) for type    3
     new r_m :   0.0610 (alat units)  1.1388 (a.u.) for type    4

     Initial potential from superposition of free atoms

     starting charge  188.99132, renormalised to  189.00000
     Starting wfcs are  137 randomized atomic wfcs
     Checking if some PAW data can be deallocated... 
       PAW data deallocated on   10 nodes for type:  1
       PAW data deallocated on    4 nodes for type:  3

     total cpu time spent up to now is     2466.8 secs

     Self-consistent Calculation

     iteration #  1     ecut=   100.00 Ry     beta= 0.40
     Davidson diagonalization with overlap
     ethr =  1.00E-02,  avg # of iterations =  3.5

     negative rho (up, down):  0.000E+00 8.845E-05

     total cpu time spent up to now is     9657.8 secs

     total energy              =   -2123.93387482 Ry
     estimated scf accuracy    <       6.76312277 Ry

     total magnetization       =    19.00 Bohr mag/cell
     absolute magnetization    =    19.00 Bohr mag/cell

     iteration #  2     ecut=   100.00 Ry     beta= 0.40
     Davidson diagonalization with overlap
     ethr =  3.58E-03,  avg # of iterations =  2.0

     negative rho (up, down):  0.000E+00 5.535E-05

     total cpu time spent up to now is    16372.8 secs

     total energy              =   -2122.42641105 Ry
     estimated scf accuracy    <      19.09878829 Ry

     total magnetization       =    11.19 Bohr mag/cell
     absolute magnetization    =    12.36 Bohr mag/cell

     iteration #  3     ecut=   100.00 Ry     beta= 0.40
     Davidson diagonalization with overlap
     ethr =  3.58E-03,  avg # of iterations =  2.8

     negative rho (up, down):  0.000E+00 3.334E-05

     total cpu time spent up to now is    21953.8 secs

     total energy              =   -2123.21475641 Ry
     estimated scf accuracy    <      79.57020777 Ry

     total magnetization       =     1.21 Bohr mag/cell
     absolute magnetization    =     4.02 Bohr mag/cell

     iteration #  4     ecut=   100.00 Ry     beta= 0.40
     Davidson diagonalization with overlap
     ethr =  3.58E-03,  avg # of iterations =  1.5

     negative rho (up, down):  0.000E+00 5.435E-05

     total cpu time spent up to now is    27248.3 secs

     total energy              =   -2125.13291941 Ry
     estimated scf accuracy    <       9.86406956 Ry

     total magnetization       =    14.87 Bohr mag/cell
     absolute magnetization    =    15.05 Bohr mag/cell

     iteration #  5     ecut=   100.00 Ry     beta= 0.40
     Davidson diagonalization with overlap
     ethr =  3.58E-03,  avg # of iterations =  2.0

     negative rho (up, down):  0.000E+00 1.357E-04

     total cpu time spent up to now is    32653.9 secs

     total energy              =   -2125.66207731 Ry
     estimated scf accuracy    <       6.40732452 Ry

     total magnetization       =    15.84 Bohr mag/cell
     absolute magnetization    =    15.94 Bohr mag/cell

     iteration #  6     ecut=   100.00 Ry     beta= 0.40
     Davidson diagonalization with overlap
     ethr =  3.39E-03,  avg # of iterations =  1.5

     negative rho (up, down):  0.000E+00 2.609E-04

     total cpu time spent up to now is    37915.3 secs

     total energy              =   -2125.92214918 Ry
     estimated scf accuracy    <       0.40628121 Ry

     total magnetization       =    19.00 Bohr mag/cell
     absolute magnetization    =    19.00 Bohr mag/cell

     iteration #  7     ecut=   100.00 Ry     beta= 0.40
     Davidson diagonalization with overlap
     c_bands:  1 eigenvalues not converged
     ethr =  2.15E-04,  avg # of iterations =  7.6

     negative rho (up, down):  0.000E+00 2.926E-04

     total cpu time spent up to now is    44081.6 secs

     total energy              =   -2125.92232285 Ry
     estimated scf accuracy    <       0.46557651 Ry

     total magnetization       =    19.00 Bohr mag/cell
     absolute magnetization    =    19.01 Bohr mag/cell

     iteration #  8     ecut=   100.00 Ry     beta= 0.40
     Davidson diagonalization with overlap
     ethr =  2.15E-04,  avg # of iterations =  1.2

     negative rho (up, down):  0.000E+00 3.736E-04

     total cpu time spent up to now is    49297.3 secs

     total energy              =   -2125.92325310 Ry
     estimated scf accuracy    <       0.34524598 Ry

     total magnetization       =    19.00 Bohr mag/cell
     absolute magnetization    =    19.00 Bohr mag/cell

     iteration #  9     ecut=   100.00 Ry     beta= 0.40
     Davidson diagonalization with overlap
     ethr =  1.83E-04,  avg # of iterations =  1.1

     negative rho (up, down):  0.000E+00 6.305E-04

     total cpu time spent up to now is    54482.0 secs

     total energy              =   -2125.95422210 Ry
     estimated scf accuracy    <       0.21896752 Ry

     total magnetization       =    19.01 Bohr mag/cell
     absolute magnetization    =    19.02 Bohr mag/cell

     iteration # 10     ecut=   100.00 Ry     beta= 0.40
     Davidson diagonalization with overlap
     ethr =  1.16E-04,  avg # of iterations =  1.4

     negative rho (up, down):  0.000E+00 8.137E-04

     total cpu time spent up to now is    59718.1 secs

     total energy              =   -2125.95839917 Ry
     estimated scf accuracy    <       0.04059013 Ry

     total magnetization       =    19.00 Bohr mag/cell
     absolute magnetization    =    19.01 Bohr mag/cell

     iteration # 11     ecut=   100.00 Ry     beta= 0.40
     Davidson diagonalization with overlap
     c_bands:  1 eigenvalues not converged
     c_bands:  1 eigenvalues not converged
     c_bands:  1 eigenvalues not converged
     c_bands:  1 eigenvalues not converged
     c_bands:  1 eigenvalues not converged
     c_bands:  1 eigenvalues not converged
     c_bands:  1 eigenvalues not converged
     ethr =  2.15E-05,  avg # of iterations = 12.4

     negative rho (up, down):  0.000E+00 8.993E-04

     total cpu time spent up to now is    66959.9 secs

     total energy              =   -2125.96037667 Ry
     estimated scf accuracy    <       0.04342614 Ry

     total magnetization       =    19.00 Bohr mag/cell
     absolute magnetization    =    19.03 Bohr mag/cell

     iteration # 12     ecut=   100.00 Ry     beta= 0.40
     Davidson diagonalization with overlap
     ethr =  2.15E-05,  avg # of iterations =  1.1

     negative rho (up, down):  0.000E+00 8.959E-04

     total cpu time spent up to now is    72147.7 secs

     total energy              =   -2125.96106791 Ry
     estimated scf accuracy    <       0.01180525 Ry

     total magnetization       =    19.00 Bohr mag/cell
     absolute magnetization    =    19.03 Bohr mag/cell

     iteration # 13     ecut=   100.00 Ry     beta= 0.40
     Davidson diagonalization with overlap
     c_bands:  1 eigenvalues not converged
     c_bands:  1 eigenvalues not converged
     c_bands:  1 eigenvalues not converged
     c_bands:  1 eigenvalues not converged
     c_bands:  1 eigenvalues not converged
     c_bands:  1 eigenvalues not converged
     c_bands:  1 eigenvalues not converged
     ethr =  6.25E-06,  avg # of iterations =  4.2

     negative rho (up, down):  0.000E+00 8.908E-04

     total cpu time spent up to now is    77894.2 secs

     total energy              =   -2125.96181565 Ry
     estimated scf accuracy    <       0.00198018 Ry

     total magnetization       =    19.00 Bohr mag/cell
     absolute magnetization    =    19.03 Bohr mag/cell

     iteration # 14     ecut=   100.00 Ry     beta= 0.40
     Davidson diagonalization with overlap
     c_bands:  1 eigenvalues not converged
     c_bands:  1 eigenvalues not converged
     ethr =  1.05E-06,  avg # of iterations =  5.7

     negative rho (up, down):  0.000E+00 8.698E-04

     total cpu time spent up to now is    85721.1 secs

     total energy              =   -2125.96251107 Ry
     estimated scf accuracy    <       0.00033868 Ry

     total magnetization       =    19.00 Bohr mag/cell
     absolute magnetization    =    19.03 Bohr mag/cell

     iteration # 15     ecut=   100.00 Ry     beta= 0.40
     Davidson diagonalization with overlap
     ethr =  1.79E-07,  avg # of iterations =  2.0

     negative rho (up, down):  0.000E+00 8.670E-04

     total cpu time spent up to now is    91229.2 secs

     total energy              =   -2125.96255114 Ry
     estimated scf accuracy    <       0.00027388 Ry

     total magnetization       =    19.00 Bohr mag/cell
     absolute magnetization    =    19.03 Bohr mag/cell

     iteration # 16     ecut=   100.00 Ry     beta= 0.40
     Davidson diagonalization with overlap
     ethr =  1.45E-07,  avg # of iterations =  1.0

     negative rho (up, down):  0.000E+00 8.593E-04

     total cpu time spent up to now is    96413.6 secs

     total energy              =   -2125.96255736 Ry
     estimated scf accuracy    <       0.00008662 Ry

     total magnetization       =    19.00 Bohr mag/cell
     absolute magnetization    =    19.03 Bohr mag/cell

     iteration # 17     ecut=   100.00 Ry     beta= 0.40
     Davidson diagonalization with overlap
     ethr =  4.58E-08,  avg # of iterations =  1.5

     negative rho (up, down):  0.000E+00 8.551E-04

     total cpu time spent up to now is   101716.1 secs

     total energy              =   -2125.96256800 Ry
     estimated scf accuracy    <       0.00030181 Ry

     total magnetization       =    19.00 Bohr mag/cell
     absolute magnetization    =    19.03 Bohr mag/cell

     iteration # 18     ecut=   100.00 Ry     beta= 0.40
     Davidson diagonalization with overlap
     ethr =  4.58E-08,  avg # of iterations =  1.0

     negative rho (up, down):  0.000E+00 8.541E-04

     total cpu time spent up to now is   106887.3 secs

     total energy              =   -2125.96257292 Ry
     estimated scf accuracy    <       0.00010073 Ry

     total magnetization       =    19.00 Bohr mag/cell
     absolute magnetization    =    19.03 Bohr mag/cell

     iteration # 19     ecut=   100.00 Ry     beta= 0.40
     Davidson diagonalization with overlap
     ethr =  4.58E-08,  avg # of iterations =  1.0

     negative rho (up, down):  0.000E+00 8.550E-04

     total cpu time spent up to now is   111936.4 secs

     total energy              =   -2125.96257466 Ry
     estimated scf accuracy    <       0.00000901 Ry

     total magnetization       =    19.00 Bohr mag/cell
     absolute magnetization    =    19.03 Bohr mag/cell

     iteration # 20     ecut=   100.00 Ry     beta= 0.40
     Davidson diagonalization with overlap
     ethr =  4.77E-09,  avg # of iterations =  3.1

     negative rho (up, down):  0.000E+00 8.566E-04

     total cpu time spent up to now is   118343.5 secs

     total energy              =   -2125.96257616 Ry
     estimated scf accuracy    <       0.00001044 Ry

     total magnetization       =    19.00 Bohr mag/cell
     absolute magnetization    =    19.03 Bohr mag/cell

     iteration # 21     ecut=   100.00 Ry     beta= 0.40
     Davidson diagonalization with overlap
     ethr =  4.77E-09,  avg # of iterations =  1.0

     negative rho (up, down):  0.000E+00 8.576E-04

     total cpu time spent up to now is   123497.1 secs

     total energy              =   -2125.96257680 Ry
     estimated scf accuracy    <       0.00000795 Ry

     total magnetization       =    19.00 Bohr mag/cell
     absolute magnetization    =    19.03 Bohr mag/cell

     iteration # 22     ecut=   100.00 Ry     beta= 0.40
     Davidson diagonalization with overlap
     ethr =  4.20E-09,  avg # of iterations =  1.0

     negative rho (up, down):  0.000E+00 8.573E-04

     total cpu time spent up to now is   128676.5 secs

     total energy              =   -2125.96257695 Ry
     estimated scf accuracy    <       0.00000065 Ry

     total magnetization       =    19.00 Bohr mag/cell
     absolute magnetization    =    19.03 Bohr mag/cell

     iteration # 23     ecut=   100.00 Ry     beta= 0.40
     Davidson diagonalization with overlap
     ethr =  3.46E-10,  avg # of iterations =  3.1

     negative rho (up, down):  0.000E+00 8.575E-04

     total cpu time spent up to now is   134541.9 secs

     total energy              =   -2125.96257707 Ry
     estimated scf accuracy    <       0.00000011 Ry

     total magnetization       =    19.00 Bohr mag/cell
     absolute magnetization    =    19.03 Bohr mag/cell

     iteration # 24     ecut=   100.00 Ry     beta= 0.40
     Davidson diagonalization with overlap
     ethr =  6.05E-11,  avg # of iterations =  3.0

     negative rho (up, down):  0.000E+00 8.574E-04

     total cpu time spent up to now is   140680.6 secs

     total energy              =   -2125.96257711 Ry
     estimated scf accuracy    <       0.00000012 Ry

     total magnetization       =    19.00 Bohr mag/cell
     absolute magnetization    =    19.03 Bohr mag/cell

     iteration # 25     ecut=   100.00 Ry     beta= 0.40
     Davidson diagonalization with overlap
     ethr =  6.05E-11,  avg # of iterations =  1.3

     negative rho (up, down):  0.000E+00 8.573E-04

     total cpu time spent up to now is   145918.6 secs

     total energy              =   -2125.96257712 Ry
     estimated scf accuracy    <       0.00000002 Ry

     total magnetization       =    19.00 Bohr mag/cell
     absolute magnetization    =    19.03 Bohr mag/cell

     iteration # 26     ecut=   100.00 Ry     beta= 0.40
     Davidson diagonalization with overlap
     ethr =  1.05E-11,  avg # of iterations =  2.6

     negative rho (up, down):  0.000E+00 8.573E-04

     total cpu time spent up to now is   151666.0 secs

     total energy              =   -2125.96257712 Ry
     estimated scf accuracy    <       0.00000003 Ry

     total magnetization       =    19.00 Bohr mag/cell
     absolute magnetization    =    19.03 Bohr mag/cell

     iteration # 27     ecut=   100.00 Ry     beta= 0.40
     Davidson diagonalization with overlap
     ethr =  1.05E-11,  avg # of iterations =  1.0

     negative rho (up, down):  0.000E+00 8.573E-04

     total cpu time spent up to now is   156866.7 secs

     total energy              =   -2125.96257713 Ry
     estimated scf accuracy    <          5.0E-09 Ry

     total magnetization       =    19.00 Bohr mag/cell
     absolute magnetization    =    19.03 Bohr mag/cell

     iteration # 28     ecut=   100.00 Ry     beta= 0.40
     Davidson diagonalization with overlap
     ethr =  2.65E-12,  avg # of iterations =  3.1

     negative rho (up, down):  0.000E+00 8.573E-04

     total cpu time spent up to now is   162522.4 secs

     total energy              =   -2125.96257713 Ry
     estimated scf accuracy    <          2.4E-09 Ry

     total magnetization       =    19.00 Bohr mag/cell
     absolute magnetization    =    19.03 Bohr mag/cell

     iteration # 29     ecut=   100.00 Ry     beta= 0.40
     Davidson diagonalization with overlap
     ethr =  1.27E-12,  avg # of iterations =  2.2

     negative rho (up, down):  0.000E+00 8.573E-04

     total cpu time spent up to now is   167985.5 secs

     total energy              =   -2125.96257713 Ry
     estimated scf accuracy    <          1.1E-09 Ry

     total magnetization       =    19.00 Bohr mag/cell
     absolute magnetization    =    19.03 Bohr mag/cell

     iteration # 30     ecut=   100.00 Ry     beta= 0.40
     Davidson diagonalization with overlap
     ethr =  5.74E-13,  avg # of iterations =  3.1

     negative rho (up, down):  0.000E+00 8.573E-04

     total cpu time spent up to now is   173649.4 secs

     total energy              =   -2125.96257713 Ry
     estimated scf accuracy    <          3.6E-10 Ry

     total magnetization       =    19.00 Bohr mag/cell
     absolute magnetization    =    19.03 Bohr mag/cell

     iteration # 31     ecut=   100.00 Ry     beta= 0.40
     Davidson diagonalization with overlap
     ethr =  1.91E-13,  avg # of iterations =  4.0

     negative rho (up, down):  0.000E+00 8.573E-04

     Magnetic moment per site:
     atom:    1    charge:    7.8884    magn:    0.0016    constr:    0.0000
     atom:    2    charge:   12.7596    magn:    3.6214    constr:    0.0000
     atom:    3    charge:   12.7779    magn:    3.5543    constr:    0.0000
     atom:    4    charge:   12.7579    magn:    3.6281    constr:    0.0000
     atom:    5    charge:   12.7945    magn:    3.5080    constr:    0.0000
     atom:    6    charge:    0.7504    magn:    0.0111    constr:    0.0000
     atom:    7    charge:    0.7406    magn:    0.0122    constr:    0.0000
     atom:    8    charge:    0.7475    magn:    0.0113    constr:    0.0000
     atom:    9    charge:    0.7419    magn:    0.0128    constr:    0.0000
     atom:   10    charge:    4.0266    magn:    0.1018    constr:    0.0000
     atom:   11    charge:    4.0100    magn:    0.1135    constr:    0.0000
     atom:   12    charge:    4.0098    magn:    0.1209    constr:    0.0000
     atom:   13    charge:    4.0088    magn:    0.1080    constr:    0.0000
     atom:   14    charge:    4.0599    magn:    0.1161    constr:    0.0000
     atom:   15    charge:    4.0536    magn:    0.0953    constr:    0.0000
     atom:   16    charge:    4.0551    magn:    0.1127    constr:    0.0000
     atom:   17    charge:    4.0512    magn:    0.0917    constr:    0.0000
     atom:   18    charge:    4.0237    magn:    0.1254    constr:    0.0000
     atom:   19    charge:    4.0289    magn:    0.1500    constr:    0.0000
     atom:   20    charge:    4.0402    magn:    0.1047    constr:    0.0000
     atom:   21    charge:    4.0313    magn:    0.1484    constr:    0.0000
     atom:   22    charge:    4.0329    magn:    0.1236    constr:    0.0000
     atom:   23    charge:    4.0312    magn:    0.1451    constr:    0.0000
     atom:   24    charge:    4.0460    magn:    0.1116    constr:    0.0000
     atom:   25    charge:    4.0230    magn:    0.1478    constr:    0.0000

     total cpu time spent up to now is   179814.0 secs

     End of self-consistent calculation

 ------ SPIN UP ------------


          k = 0.0000 0.0000 0.0000 ( 32925 PWs)   bands (ev):

   -83.9043 -83.8765 -83.4766 -83.3187 -49.9694 -49.9423 -49.8966 -49.8881
   -49.8564 -49.8057 -49.6934 -49.5982 -49.4568 -49.3175 -49.3071 -49.1136
   -43.2995 -15.9093 -15.7677 -15.6258 -15.5507 -15.3264 -15.3048 -14.9798
   -13.3902 -13.1935 -13.0164 -12.9168 -12.8529 -12.8088 -12.6999 -12.6043
   -12.5774 -12.5608 -12.4370 -12.3645  -3.3372  -2.8669  -2.6169  -2.2719
    -1.5737  -1.3889  -1.1955  -1.0316  -1.0299  -0.6116  -0.6059  -0.4665
    -0.2974  -0.2072  -0.1902  -0.0803   0.5795   0.6553   1.0607   1.2248
     1.2737   1.3265   1.3450   1.4525   1.5574   1.6553   1.7505   1.8883
     2.1187   2.2226   2.4585   2.4859   2.6517   2.7649   2.8221   2.8573
     2.9113   2.9945   3.1456   3.3468   3.4040   3.5624   3.6487   3.7008
     3.8178   3.9287   3.9913   4.1695   4.2526   4.3802   4.4394   4.4843
     4.4915   4.5703   4.6994   4.8144   4.8813   4.9721   5.0911   5.1444
     5.2762   5.4900   5.5806   5.6192   5.9413   6.2230   6.5434   6.6655
    11.0347  13.0326  13.2966  13.8893  14.1111  14.6809  14.8320  15.1251
    15.2052  15.3408

     occupation numbers 
     1.0000   1.0000   1.0000   1.0000   1.0000   1.0000   1.0000   1.0000
     1.0000   1.0000   1.0000   1.0000   1.0000   1.0000   1.0000   1.0000
     1.0000   1.0000   1.0000   1.0000   1.0000   1.0000   1.0000   1.0000
     1.0000   1.0000   1.0000   1.0000   1.0000   1.0000   1.0000   1.0000
     1.0000   1.0000   1.0000   1.0000   1.0000   1.0000   1.0000   1.0000
     1.0000   1.0000   1.0000   1.0000   1.0000   1.0000   1.0000   1.0000
     1.0000   1.0000   1.0000   1.0000   1.0000   1.0000   1.0000   1.0000
     1.0000   1.0000   1.0000   1.0000   1.0000   1.0000   1.0000   1.0000
     1.0000   1.0000   1.0000   1.0000   1.0000   1.0000   1.0000   1.0000
     1.0000   1.0000   1.0000   1.0000   1.0000   1.0000   1.0000   1.0000
     1.0000   1.0000   1.0000   1.0000   1.0000   1.0000   1.0000   1.0000
     1.0000   1.0000   1.0000   1.0000   1.0000   1.0000   1.0000   1.0000
     1.0000   1.0000   1.0000   1.0000   1.0000   1.0000   1.0000   1.0000
     0.0000   0.0000   0.0000   0.0000   0.0000   0.0000   0.0000   0.0000
     0.0000   0.0000

          k = 0.0000 0.0000 0.2220 ( 32901 PWs)   bands (ev):

   -83.9043 -83.8765 -83.4766 -83.3187 -49.9694 -49.9423 -49.8966 -49.8881
   -49.8564 -49.8057 -49.6935 -49.5982 -49.4568 -49.3175 -49.3071 -49.1136
   -43.2995 -15.9058 -15.7715 -15.6225 -15.5389 -15.3254 -15.2931 -14.9859
   -13.3936 -13.1998 -13.0194 -12.9151 -12.8495 -12.8070 -12.7058 -12.6146
   -12.5813 -12.5595 -12.4496 -12.3736  -3.3047  -2.8570  -2.6067  -2.2732
    -1.5265  -1.3947  -1.1851  -1.0310  -1.0150  -0.6191  -0.6031  -0.4213
    -0.3203  -0.2177  -0.1646  -0.0750   0.5838   0.6714   1.0502   1.1845
     1.2597   1.3368   1.3734   1.4755   1.5293   1.6254   1.7482   1.9279
     2.0922   2.2275   2.4247   2.5206   2.6058   2.7550   2.8117   2.8525
     2.9015   3.0011   3.1798   3.3140   3.3508   3.5400   3.6228   3.7191
     3.7729   3.9401   4.0440   4.1875   4.2505   4.3291   4.4035   4.4260
     4.5219   4.5820   4.6693   4.8159   4.9218   5.0027   5.1197   5.1560
     5.2786   5.4580   5.5723   5.6477   5.9265   6.2122   6.5310   6.6493
    11.1846  13.1112  13.3892  13.8780  14.1718  14.6513  14.7878  15.0112
    15.1160  15.3377

     occupation numbers 
     1.0000   1.0000   1.0000   1.0000   1.0000   1.0000   1.0000   1.0000
     1.0000   1.0000   1.0000   1.0000   1.0000   1.0000   1.0000   1.0000
     1.0000   1.0000   1.0000   1.0000   1.0000   1.0000   1.0000   1.0000
     1.0000   1.0000   1.0000   1.0000   1.0000   1.0000   1.0000   1.0000
     1.0000   1.0000   1.0000   1.0000   1.0000   1.0000   1.0000   1.0000
     1.0000   1.0000   1.0000   1.0000   1.0000   1.0000   1.0000   1.0000
     1.0000   1.0000   1.0000   1.0000   1.0000   1.0000   1.0000   1.0000
     1.0000   1.0000   1.0000   1.0000   1.0000   1.0000   1.0000   1.0000
     1.0000   1.0000   1.0000   1.0000   1.0000   1.0000   1.0000   1.0000
     1.0000   1.0000   1.0000   1.0000   1.0000   1.0000   1.0000   1.0000
     1.0000   1.0000   1.0000   1.0000   1.0000   1.0000   1.0000   1.0000
     1.0000   1.0000   1.0000   1.0000   1.0000   1.0000   1.0000   1.0000
     1.0000   1.0000   1.0000   1.0000   1.0000   1.0000   1.0000   1.0000
     0.0000   0.0000   0.0000   0.0000   0.0000   0.0000   0.0000   0.0000
     0.0000   0.0000

          k = 0.0000 0.0000 0.4441 ( 32914 PWs)   bands (ev):

   -83.9043 -83.8765 -83.4766 -83.3187 -49.9694 -49.9423 -49.8966 -49.8881
   -49.8564 -49.8057 -49.6935 -49.5982 -49.4568 -49.3175 -49.3071 -49.1136
   -43.2995 -15.8967 -15.7842 -15.6019 -15.5168 -15.3239 -15.2600 -15.0049
   -13.4022 -13.2166 -13.0259 -12.9110 -12.8428 -12.8022 -12.7228 -12.6350
   -12.5903 -12.5609 -12.4790 -12.3970  -3.2172  -2.8338  -2.5785  -2.2921
    -1.4369  -1.3687  -1.1406  -1.0273  -0.9973  -0.6242  -0.5937  -0.4195
    -0.2947  -0.1929  -0.1215  -0.0575   0.5970   0.7049   1.0298   1.1099
     1.2765   1.3442   1.3965   1.4406   1.5245   1.6348   1.7467   1.9913
     2.0462   2.2128   2.3912   2.4933   2.5687   2.6608   2.7841   2.8325
     2.8741   3.0133   3.1194   3.2445   3.3396   3.4375   3.6126   3.7086
     3.7841   3.9520   4.0154   4.1801   4.2315   4.3000   4.3571   4.4081
     4.5608   4.5782   4.6744   4.8191   4.9350   5.0840   5.1388   5.2031
     5.2747   5.4527   5.5605   5.6800   5.9026   6.1809   6.4995   6.6062
    11.5915  13.3215  13.6243  13.9107  14.2864  14.5493  14.6877  14.7928
    14.9447  15.1849

     occupation numbers 
     1.0000   1.0000   1.0000   1.0000   1.0000   1.0000   1.0000   1.0000
     1.0000   1.0000   1.0000   1.0000   1.0000   1.0000   1.0000   1.0000
     1.0000   1.0000   1.0000   1.0000   1.0000   1.0000   1.0000   1.0000
     1.0000   1.0000   1.0000   1.0000   1.0000   1.0000   1.0000   1.0000
     1.0000   1.0000   1.0000   1.0000   1.0000   1.0000   1.0000   1.0000
     1.0000   1.0000   1.0000   1.0000   1.0000   1.0000   1.0000   1.0000
     1.0000   1.0000   1.0000   1.0000   1.0000   1.0000   1.0000   1.0000
     1.0000   1.0000   1.0000   1.0000   1.0000   1.0000   1.0000   1.0000
     1.0000   1.0000   1.0000   1.0000   1.0000   1.0000   1.0000   1.0000
     1.0000   1.0000   1.0000   1.0000   1.0000   1.0000   1.0000   1.0000
     1.0000   1.0000   1.0000   1.0000   1.0000   1.0000   1.0000   1.0000
     1.0000   1.0000   1.0000   1.0000   1.0000   1.0000   1.0000   1.0000
     1.0000   1.0000   1.0000   1.0000   1.0000   1.0000   1.0000   1.0000
     0.0000   0.0000   0.0000   0.0000   0.0000   0.0000   0.0000   0.0000
     0.0000   0.0000

          k = 0.0000 0.0000 0.6661 ( 32938 PWs)   bands (ev):

   -83.9043 -83.8765 -83.4766 -83.3187 -49.9694 -49.9423 -49.8966 -49.8881
   -49.8564 -49.8057 -49.6935 -49.5982 -49.4568 -49.3175 -49.3071 -49.1136
   -43.2995 -15.8861 -15.8002 -15.5659 -15.5004 -15.3225 -15.2140 -15.0362
   -13.4115 -13.2375 -13.0317 -12.9069 -12.8392 -12.7961 -12.7437 -12.6520
   -12.6079 -12.5614 -12.5051 -12.4260  -3.1043  -2.8100  -2.5416  -2.3427
    -1.4501  -1.2086  -1.0710  -1.0205  -0.9869  -0.6389  -0.5819  -0.4848
    -0.2588  -0.1137  -0.0769   0.0117   0.6193   0.7329   1.0070   1.0834
     1.2777   1.3362   1.3808   1.4391   1.5837   1.6798   1.7474   1.9542
     2.0424   2.2178   2.3009   2.4285   2.5156   2.6062   2.6589   2.7443
     2.8243   2.9050   3.0939   3.2249   3.3361   3.4427   3.6254   3.6883
     3.7499   3.8224   4.0400   4.1019   4.1796   4.3284   4.4067   4.4567
     4.5481   4.5965   4.7471   4.8127   4.9594   5.0960   5.1217   5.2348
     5.3188   5.5121   5.5496   5.6938   5.9045   6.1361   6.4641   6.5488
    12.1625  13.5950  13.8155  14.0232  14.2517  14.3996  14.5526  14.6763
    14.8161  14.9785

     occupation numbers 
     1.0000   1.0000   1.0000   1.0000   1.0000   1.0000   1.0000   1.0000
     1.0000   1.0000   1.0000   1.0000   1.0000   1.0000   1.0000   1.0000
     1.0000   1.0000   1.0000   1.0000   1.0000   1.0000   1.0000   1.0000
     1.0000   1.0000   1.0000   1.0000   1.0000   1.0000   1.0000   1.0000
     1.0000   1.0000   1.0000   1.0000   1.0000   1.0000   1.0000   1.0000
     1.0000   1.0000   1.0000   1.0000   1.0000   1.0000   1.0000   1.0000
     1.0000   1.0000   1.0000   1.0000   1.0000   1.0000   1.0000   1.0000
     1.0000   1.0000   1.0000   1.0000   1.0000   1.0000   1.0000   1.0000
     1.0000   1.0000   1.0000   1.0000   1.0000   1.0000   1.0000   1.0000
     1.0000   1.0000   1.0000   1.0000   1.0000   1.0000   1.0000   1.0000
     1.0000   1.0000   1.0000   1.0000   1.0000   1.0000   1.0000   1.0000
     1.0000   1.0000   1.0000   1.0000   1.0000   1.0000   1.0000   1.0000
     1.0000   1.0000   1.0000   1.0000   1.0000   1.0000   1.0000   1.0000
     0.0000   0.0000   0.0000   0.0000   0.0000   0.0000   0.0000   0.0000
     0.0000   0.0000

          k = 0.0000 0.0000 0.8882 ( 32928 PWs)   bands (ev):

   -83.9043 -83.8765 -83.4766 -83.3187 -49.9694 -49.9423 -49.8966 -49.8881
   -49.8564 -49.8057 -49.6935 -49.5982 -49.4568 -49.3175 -49.3071 -49.1136
   -43.2995 -15.8793 -15.8102 -15.5346 -15.4963 -15.3216 -15.1698 -15.0719
   -13.4170 -13.2522 -13.0348 -12.9044 -12.8398 -12.7925 -12.7561 -12.6602
   -12.6270 -12.5586 -12.5154 -12.4481  -3.0181  -2.7947  -2.5077  -2.4038
    -1.4626  -1.1142  -1.0229  -0.9956  -0.9667  -0.6684  -0.5899  -0.4911
    -0.2853  -0.0669  -0.0078   0.0774   0.6573   0.7415   1.0126   1.0607
     1.2526   1.3126   1.4379   1.5036   1.5894   1.7290   1.7572   1.9015
     1.9618   2.1992   2.2359   2.3303   2.4887   2.5871   2.6148   2.6527
     2.7604   2.8629   3.0378   3.2006   3.4073   3.4812   3.5845   3.6720
     3.7114   3.7877   3.9781   4.0543   4.2012   4.3052   4.4443   4.4929
     4.5690   4.6523   4.7645   4.8238   4.9793   5.0602   5.1032   5.2406
     5.4191   5.5065   5.5691   5.7002   5.9293   6.0960   6.4475   6.4961
    12.8002  13.4783  13.8229  13.9837  14.3110  14.4651  14.5086  14.6179
    14.7343  14.8904

     occupation numbers 
     1.0000   1.0000   1.0000   1.0000   1.0000   1.0000   1.0000   1.0000
     1.0000   1.0000   1.0000   1.0000   1.0000   1.0000   1.0000   1.0000
     1.0000   1.0000   1.0000   1.0000   1.0000   1.0000   1.0000   1.0000
     1.0000   1.0000   1.0000   1.0000   1.0000   1.0000   1.0000   1.0000
     1.0000   1.0000   1.0000   1.0000   1.0000   1.0000   1.0000   1.0000
     1.0000   1.0000   1.0000   1.0000   1.0000   1.0000   1.0000   1.0000
     1.0000   1.0000   1.0000   1.0000   1.0000   1.0000   1.0000   1.0000
     1.0000   1.0000   1.0000   1.0000   1.0000   1.0000   1.0000   1.0000
     1.0000   1.0000   1.0000   1.0000   1.0000   1.0000   1.0000   1.0000
     1.0000   1.0000   1.0000   1.0000   1.0000   1.0000   1.0000   1.0000
     1.0000   1.0000   1.0000   1.0000   1.0000   1.0000   1.0000   1.0000
     1.0000   1.0000   1.0000   1.0000   1.0000   1.0000   1.0000   1.0000
     1.0000   1.0000   1.0000   1.0000   1.0000   1.0000   1.0000   1.0000
     0.0000   0.0000   0.0000   0.0000   0.0000   0.0000   0.0000   0.0000
     0.0000   0.0000

          k = 0.0000 0.2391 0.0000 ( 32913 PWs)   bands (ev):

   -83.9043 -83.8765 -83.4766 -83.3187 -49.9694 -49.9423 -49.8966 -49.8881
   -49.8564 -49.8057 -49.6934 -49.5982 -49.4568 -49.3175 -49.3071 -49.1136
   -43.2995 -15.8967 -15.7756 -15.6166 -15.5428 -15.3268 -15.3026 -14.9948
   -13.3946 -13.2035 -13.0379 -12.9246 -12.8495 -12.8127 -12.6961 -12.5954
   -12.5811 -12.5473 -12.4339 -12.3668  -3.3098  -2.8725  -2.6009  -2.2684
    -1.5410  -1.3590  -1.2044  -1.0364  -0.9771  -0.6301  -0.5681  -0.4462
    -0.3162  -0.2273  -0.1288  -0.0648   0.5676   0.6538   1.0275   1.1376
     1.1748   1.2726   1.4063   1.4620   1.5859   1.6508   1.8562   1.9222
     2.1159   2.2196   2.3974   2.5106   2.5464   2.7377   2.7813   2.8378
     2.9082   2.9643   3.1237   3.3183   3.4562   3.5484   3.6926   3.7419
     3.8758   3.9116   4.0430   4.1551   4.2314   4.2841   4.3487   4.4378
     4.5355   4.5702   4.6718   4.7791   4.8816   4.9749   5.0930   5.1553
     5.2707   5.4130   5.5619   5.6875   5.9458   6.3077   6.5882   6.6739
    11.1933  13.1081  13.3822  13.9116  14.0361  14.6531  14.8653  15.0471
    15.1969  15.3239

     occupation numbers 
     1.0000   1.0000   1.0000   1.0000   1.0000   1.0000   1.0000   1.0000
     1.0000   1.0000   1.0000   1.0000   1.0000   1.0000   1.0000   1.0000
     1.0000   1.0000   1.0000   1.0000   1.0000   1.0000   1.0000   1.0000
     1.0000   1.0000   1.0000   1.0000   1.0000   1.0000   1.0000   1.0000
     1.0000   1.0000   1.0000   1.0000   1.0000   1.0000   1.0000   1.0000
     1.0000   1.0000   1.0000   1.0000   1.0000   1.0000   1.0000   1.0000
     1.0000   1.0000   1.0000   1.0000   1.0000   1.0000   1.0000   1.0000
     1.0000   1.0000   1.0000   1.0000   1.0000   1.0000   1.0000   1.0000
     1.0000   1.0000   1.0000   1.0000   1.0000   1.0000   1.0000   1.0000
     1.0000   1.0000   1.0000   1.0000   1.0000   1.0000   1.0000   1.0000
     1.0000   1.0000   1.0000   1.0000   1.0000   1.0000   1.0000   1.0000
     1.0000   1.0000   1.0000   1.0000   1.0000   1.0000   1.0000   1.0000
     1.0000   1.0000   1.0000   1.0000   1.0000   1.0000   1.0000   1.0000
     0.0000   0.0000   0.0000   0.0000   0.0000   0.0000   0.0000   0.0000
     0.0000   0.0000

          k = 0.0000 0.2391 0.2220 ( 32922 PWs)   bands (ev):

   -83.9043 -83.8765 -83.4766 -83.3187 -49.9694 -49.9423 -49.8966 -49.8881
   -49.8564 -49.8057 -49.6935 -49.5982 -49.4568 -49.3175 -49.3071 -49.1136
   -43.2995 -15.8828 -15.7666 -15.6284 -15.5553 -15.3247 -15.2906 -14.9844
   -13.3970 -13.2087 -13.0278 -12.9250 -12.8545 -12.8214 -12.7104 -12.6080
   -12.5779 -12.5415 -12.4419 -12.3775  -3.2787  -2.8599  -2.5873  -2.2704
    -1.5029  -1.3678  -1.2018  -1.0140  -0.9687  -0.6230  -0.5385  -0.4137
    -0.3109  -0.2314  -0.1431  -0.0800   0.5708   0.6506   0.9967   1.1608
     1.2056   1.3052   1.3858   1.4187   1.5276   1.6291   1.8969   1.9395
     2.0548   2.2032   2.4043   2.4824   2.4933   2.7174   2.8509   2.8661
     2.9284   3.0311   3.1945   3.3245   3.4041   3.5095   3.6337   3.6924
     3.8445   3.9389   4.0153   4.1609   4.2395   4.2603   4.3354   4.3844
     4.4811   4.5740   4.6618   4.7734   4.9236   5.0052   5.0886   5.1704
     5.2737   5.4190   5.5665   5.7223   5.9471   6.3010   6.5560   6.6677
    11.3392  13.1912  13.4793  13.9129  14.0432  14.6572  14.9116  14.9809
    15.1278  15.2187

     occupation numbers 
     1.0000   1.0000   1.0000   1.0000   1.0000   1.0000   1.0000   1.0000
     1.0000   1.0000   1.0000   1.0000   1.0000   1.0000   1.0000   1.0000
     1.0000   1.0000   1.0000   1.0000   1.0000   1.0000   1.0000   1.0000
     1.0000   1.0000   1.0000   1.0000   1.0000   1.0000   1.0000   1.0000
     1.0000   1.0000   1.0000   1.0000   1.0000   1.0000   1.0000   1.0000
     1.0000   1.0000   1.0000   1.0000   1.0000   1.0000   1.0000   1.0000
     1.0000   1.0000   1.0000   1.0000   1.0000   1.0000   1.0000   1.0000
     1.0000   1.0000   1.0000   1.0000   1.0000   1.0000   1.0000   1.0000
     1.0000   1.0000   1.0000   1.0000   1.0000   1.0000   1.0000   1.0000
     1.0000   1.0000   1.0000   1.0000   1.0000   1.0000   1.0000   1.0000
     1.0000   1.0000   1.0000   1.0000   1.0000   1.0000   1.0000   1.0000
     1.0000   1.0000   1.0000   1.0000   1.0000   1.0000   1.0000   1.0000
     1.0000   1.0000   1.0000   1.0000   1.0000   1.0000   1.0000   1.0000
     0.0000   0.0000   0.0000   0.0000   0.0000   0.0000   0.0000   0.0000
     0.0000   0.0000

          k = 0.0000 0.2391 0.4441 ( 32913 PWs)   bands (ev):

   -83.9043 -83.8765 -83.4766 -83.3187 -49.9694 -49.9423 -49.8966 -49.8881
   -49.8564 -49.8057 -49.6935 -49.5982 -49.4568 -49.3175 -49.3071 -49.1136
   -43.2995 -15.8668 -15.7677 -15.6271 -15.5432 -15.3235 -15.2623 -14.9854
   -13.4052 -13.2232 -13.0234 -12.9241 -12.8547 -12.8315 -12.7283 -12.6315
   -12.5819 -12.5426 -12.4631 -12.4014  -3.1917  -2.8311  -2.5635  -2.2829
    -1.4248  -1.3493  -1.1506  -0.9973  -0.9585  -0.6043  -0.5215  -0.3905
    -0.3059  -0.2141  -0.1375  -0.0563   0.5765   0.6705   0.9789   1.1470
     1.2185   1.3120   1.3677   1.4258   1.4877   1.6306   1.8906   1.9624
     2.0130   2.2035   2.3322   2.4545   2.4964   2.6328   2.7934   2.9007
     2.9536   3.0609   3.1557   3.2677   3.3872   3.4173   3.6081   3.6810
     3.8164   3.9387   3.9955   4.1246   4.1704   4.2462   4.2936   4.3586
     4.5052   4.5916   4.6635   4.7681   4.9028   5.0729   5.1487   5.2238
     5.2769   5.4298   5.5246   5.7463   5.9665   6.2792   6.5086   6.6363
    11.7332  13.3924  13.7186  13.9408  14.1464  14.5842  14.7278  14.8766
    14.9707  15.0995

     occupation numbers 
     1.0000   1.0000   1.0000   1.0000   1.0000   1.0000   1.0000   1.0000
     1.0000   1.0000   1.0000   1.0000   1.0000   1.0000   1.0000   1.0000
     1.0000   1.0000   1.0000   1.0000   1.0000   1.0000   1.0000   1.0000
     1.0000   1.0000   1.0000   1.0000   1.0000   1.0000   1.0000   1.0000
     1.0000   1.0000   1.0000   1.0000   1.0000   1.0000   1.0000   1.0000
     1.0000   1.0000   1.0000   1.0000   1.0000   1.0000   1.0000   1.0000
     1.0000   1.0000   1.0000   1.0000   1.0000   1.0000   1.0000   1.0000
     1.0000   1.0000   1.0000   1.0000   1.0000   1.0000   1.0000   1.0000
     1.0000   1.0000   1.0000   1.0000   1.0000   1.0000   1.0000   1.0000
     1.0000   1.0000   1.0000   1.0000   1.0000   1.0000   1.0000   1.0000
     1.0000   1.0000   1.0000   1.0000   1.0000   1.0000   1.0000   1.0000
     1.0000   1.0000   1.0000   1.0000   1.0000   1.0000   1.0000   1.0000
     1.0000   1.0000   1.0000   1.0000   1.0000   1.0000   1.0000   1.0000
     0.0000   0.0000   0.0000   0.0000   0.0000   0.0000   0.0000   0.0000
     0.0000   0.0000

          k = 0.0000 0.2391 0.6661 ( 32939 PWs)   bands (ev):

   -83.9043 -83.8765 -83.4766 -83.3187 -49.9694 -49.9423 -49.8966 -49.8881
   -49.8564 -49.8057 -49.6935 -49.5982 -49.4568 -49.3175 -49.3071 -49.1136
   -43.2995 -15.8565 -15.7839 -15.5935 -15.5256 -15.3225 -15.2283 -15.0012
   -13.4150 -13.2415 -13.0268 -12.9236 -12.8578 -12.8322 -12.7426 -12.6523
   -12.5964 -12.5463 -12.4830 -12.4285  -3.0779  -2.8011  -2.5410  -2.3216
    -1.4342  -1.2016  -1.0679  -0.9936  -0.9529  -0.5936  -0.5269  -0.4661
    -0.2800  -0.1381  -0.0980   0.0198   0.5997   0.6793   0.9842   1.1073
     1.2503   1.2784   1.3505   1.4028   1.6038   1.6746   1.8576   1.9258
     2.0245   2.2005   2.2455   2.3836   2.4773   2.6349   2.6601   2.7731
     2.8791   2.9480   3.1148   3.2447   3.3474   3.4614   3.6296   3.6423
     3.7717   3.8482   3.9975   4.0721   4.1533   4.2437   4.3070   4.4165
     4.5344   4.6117   4.6942   4.7661   4.8867   5.0991   5.1691   5.2563
     5.3503   5.4187   5.5276   5.7302   6.0072   6.2464   6.4642   6.5931
    12.2878  13.6324  13.9218  14.0334  14.2868  14.3463  14.5556  14.7421
    14.8410  14.9580

     occupation numbers 
     1.0000   1.0000   1.0000   1.0000   1.0000   1.0000   1.0000   1.0000
     1.0000   1.0000   1.0000   1.0000   1.0000   1.0000   1.0000   1.0000
     1.0000   1.0000   1.0000   1.0000   1.0000   1.0000   1.0000   1.0000
     1.0000   1.0000   1.0000   1.0000   1.0000   1.0000   1.0000   1.0000
     1.0000   1.0000   1.0000   1.0000   1.0000   1.0000   1.0000   1.0000
     1.0000   1.0000   1.0000   1.0000   1.0000   1.0000   1.0000   1.0000
     1.0000   1.0000   1.0000   1.0000   1.0000   1.0000   1.0000   1.0000
     1.0000   1.0000   1.0000   1.0000   1.0000   1.0000   1.0000   1.0000
     1.0000   1.0000   1.0000   1.0000   1.0000   1.0000   1.0000   1.0000
     1.0000   1.0000   1.0000   1.0000   1.0000   1.0000   1.0000   1.0000
     1.0000   1.0000   1.0000   1.0000   1.0000   1.0000   1.0000   1.0000
     1.0000   1.0000   1.0000   1.0000   1.0000   1.0000   1.0000   1.0000
     1.0000   1.0000   1.0000   1.0000   1.0000   1.0000   1.0000   1.0000
     0.0000   0.0000   0.0000   0.0000   0.0000   0.0000   0.0000   0.0000
     0.0000   0.0000

          k = 0.0000 0.2391 0.8882 ( 32940 PWs)   bands (ev):

   -83.9043 -83.8765 -83.4766 -83.3187 -49.9694 -49.9423 -49.8966 -49.8881
   -49.8564 -49.8057 -49.6935 -49.5982 -49.4568 -49.3175 -49.3071 -49.1136
   -43.2995 -15.8594 -15.7954 -15.5510 -15.5153 -15.3222 -15.1928 -15.0338
   -13.4209 -13.2555 -13.0347 -12.9244 -12.8626 -12.8221 -12.7456 -12.6633
   -12.6172 -12.5465 -12.4942 -12.4457  -2.9902  -2.7815  -2.5190  -2.3782
    -1.4370  -1.1003  -1.0178  -0.9715  -0.9422  -0.6319  -0.5541  -0.4757
    -0.3110  -0.0702  -0.0167   0.0805   0.6366   0.6776   0.9955   1.0764
     1.1848   1.2801   1.3861   1.4922   1.6349   1.7400   1.8460   1.9111
     1.9922   2.1716   2.2065   2.3178   2.4395   2.5510   2.6005   2.6943
     2.7846   2.8717   3.0597   3.2128   3.3963   3.4911   3.5448   3.6536
     3.7072   3.7944   3.9832   4.0463   4.1634   4.2855   4.3661   4.4861
     4.5569   4.6207   4.6921   4.7961   4.9048   5.0848   5.1665   5.2704
     5.3691   5.4585   5.5531   5.6881   6.0155   6.2297   6.4487   6.5545
    12.9069  13.5760  13.8118  14.0897  14.3153  14.4335  14.5211  14.6181
    14.8251  14.9153

     occupation numbers 
     1.0000   1.0000   1.0000   1.0000   1.0000   1.0000   1.0000   1.0000
     1.0000   1.0000   1.0000   1.0000   1.0000   1.0000   1.0000   1.0000
     1.0000   1.0000   1.0000   1.0000   1.0000   1.0000   1.0000   1.0000
     1.0000   1.0000   1.0000   1.0000   1.0000   1.0000   1.0000   1.0000
     1.0000   1.0000   1.0000   1.0000   1.0000   1.0000   1.0000   1.0000
     1.0000   1.0000   1.0000   1.0000   1.0000   1.0000   1.0000   1.0000
     1.0000   1.0000   1.0000   1.0000   1.0000   1.0000   1.0000   1.0000
     1.0000   1.0000   1.0000   1.0000   1.0000   1.0000   1.0000   1.0000
     1.0000   1.0000   1.0000   1.0000   1.0000   1.0000   1.0000   1.0000
     1.0000   1.0000   1.0000   1.0000   1.0000   1.0000   1.0000   1.0000
     1.0000   1.0000   1.0000   1.0000   1.0000   1.0000   1.0000   1.0000
     1.0000   1.0000   1.0000   1.0000   1.0000   1.0000   1.0000   1.0000
     1.0000   1.0000   1.0000   1.0000   1.0000   1.0000   1.0000   1.0000
     0.0000   0.0000   0.0000   0.0000   0.0000   0.0000   0.0000   0.0000
     0.0000   0.0000

          k = 0.0000 0.4781 0.0000 ( 32886 PWs)   bands (ev):

   -83.9043 -83.8765 -83.4766 -83.3187 -49.9694 -49.9423 -49.8966 -49.8881
   -49.8564 -49.8057 -49.6934 -49.5982 -49.4568 -49.3175 -49.3071 -49.1136
   -43.2995 -15.8718 -15.7797 -15.6107 -15.5193 -15.3277 -15.2959 -15.0314
   -13.4008 -13.2355 -13.0741 -12.9410 -12.8625 -12.7917 -12.6983 -12.6097
   -12.5585 -12.5195 -12.4245 -12.3746  -3.2406  -2.9039  -2.5458  -2.2746
    -1.4519  -1.2889  -1.2165  -1.0450  -0.8596  -0.6446  -0.5019  -0.3978
    -0.3420  -0.2022  -0.0916  -0.0156   0.5321   0.6197   0.9141   1.0234
     1.1013   1.2189   1.4004   1.4677   1.6155   1.6978   1.8138   2.0315
     2.1417   2.2196   2.2535   2.4995   2.5142   2.6594   2.7205   2.7618
     2.8731   2.9927   3.1749   3.2984   3.4901   3.5241   3.6738   3.7961
     3.8588   3.9909   4.0328   4.1093   4.1685   4.1965   4.2534   4.3841
     4.5187   4.5847   4.6482   4.7299   4.8730   4.9670   5.0812   5.1742
     5.2215   5.3244   5.5482   5.7138   6.0909   6.4036   6.6477   6.7227
    11.6243  13.3052  13.4991  13.6745  14.0843  14.6988  14.7972  14.9999
    15.0776  15.3523

     occupation numbers 
     1.0000   1.0000   1.0000   1.0000   1.0000   1.0000   1.0000   1.0000
     1.0000   1.0000   1.0000   1.0000   1.0000   1.0000   1.0000   1.0000
     1.0000   1.0000   1.0000   1.0000   1.0000   1.0000   1.0000   1.0000
     1.0000   1.0000   1.0000   1.0000   1.0000   1.0000   1.0000   1.0000
     1.0000   1.0000   1.0000   1.0000   1.0000   1.0000   1.0000   1.0000
     1.0000   1.0000   1.0000   1.0000   1.0000   1.0000   1.0000   1.0000
     1.0000   1.0000   1.0000   1.0000   1.0000   1.0000   1.0000   1.0000
     1.0000   1.0000   1.0000   1.0000   1.0000   1.0000   1.0000   1.0000
     1.0000   1.0000   1.0000   1.0000   1.0000   1.0000   1.0000   1.0000
     1.0000   1.0000   1.0000   1.0000   1.0000   1.0000   1.0000   1.0000
     1.0000   1.0000   1.0000   1.0000   1.0000   1.0000   1.0000   1.0000
     1.0000   1.0000   1.0000   1.0000   1.0000   1.0000   1.0000   1.0000
     1.0000   1.0000   1.0000   1.0000   1.0000   1.0000   1.0000   1.0000
     0.0000   0.0000   0.0000   0.0000   0.0000   0.0000   0.0000   0.0000
     0.0000   0.0000

          k = 0.0000 0.4781 0.2220 ( 32900 PWs)   bands (ev):

   -83.9043 -83.8765 -83.4766 -83.3187 -49.9694 -49.9423 -49.8966 -49.8881
   -49.8564 -49.8057 -49.6935 -49.5982 -49.4568 -49.3175 -49.3071 -49.1136
   -43.2995 -15.8455 -15.7765 -15.6163 -15.5557 -15.3258 -15.2819 -15.0105
   -13.4020 -13.2385 -13.0625 -12.9429 -12.8721 -12.8039 -12.7188 -12.6128
   -12.5565 -12.5162 -12.4299 -12.3843  -3.2116  -2.8844  -2.5310  -2.2786
    -1.4227  -1.2981  -1.2130  -1.0169  -0.8508  -0.6235  -0.4669  -0.3594
    -0.3165  -0.2477  -0.0985  -0.0446   0.5371   0.6022   0.8916   1.0483
     1.1280   1.2344   1.3619   1.4280   1.5873   1.6572   1.8782   1.9827
     2.1002   2.1948   2.2865   2.4573   2.5069   2.6166   2.8147   2.8698
     2.9012   3.0544   3.2291   3.2822   3.4072   3.5014   3.6270   3.7191
     3.8526   3.9691   4.0187   4.0577   4.1740   4.2041   4.2566   4.3442
     4.4653   4.5503   4.6414   4.7368   4.9176   5.0304   5.0680   5.1691
     5.2230   5.3400   5.5526   5.7298   6.1040   6.3994   6.6388   6.7067
    11.7556  13.3835  13.5548  13.7599  14.0730  14.7039  14.8460  14.9664
    15.0584  15.2206

     occupation numbers 
     1.0000   1.0000   1.0000   1.0000   1.0000   1.0000   1.0000   1.0000
     1.0000   1.0000   1.0000   1.0000   1.0000   1.0000   1.0000   1.0000
     1.0000   1.0000   1.0000   1.0000   1.0000   1.0000   1.0000   1.0000
     1.0000   1.0000   1.0000   1.0000   1.0000   1.0000   1.0000   1.0000
     1.0000   1.0000   1.0000   1.0000   1.0000   1.0000   1.0000   1.0000
[...]
     atom    9 type  4   force =     0.07164194   -0.00353089   -0.07762996
     atom   10 type  3   force =    -0.01131512   -0.00212375   -0.00469484
     atom   11 type  3   force =     0.02150031   -0.00312528   -0.00955576
     atom   12 type  3   force =     0.01976477   -0.00291546   -0.00079384
     atom   13 type  3   force =    -0.02079767    0.00420666    0.00962903
     atom   14 type  3   force =    -0.12971787   -0.00008210    0.03391465
     atom   15 type  3   force =     0.11576010   -0.04099129    0.01931726
     atom   16 type  3   force =     0.13058242    0.00161782   -0.02971669
     atom   17 type  3   force =    -0.11267870    0.03849331   -0.01853854
     atom   18 type  3   force =     0.04425946    0.07694329   -0.02368706
     atom   19 type  3   force =    -0.02459400   -0.06426658   -0.04121725
     atom   20 type  3   force =    -0.00532413    0.09964176    0.05546388
     atom   21 type  3   force =     0.02229367   -0.07223778    0.02768553
     atom   22 type  3   force =    -0.05239589   -0.06901792    0.01799004
     atom   23 type  3   force =     0.02787096    0.06428540    0.04136786
     atom   24 type  3   force =     0.01241982   -0.10171781   -0.05499844
     atom   25 type  3   force =    -0.02770939    0.07374556   -0.03089255
     The non-local contrib.  to forces
     atom    1 type  2   force =    -0.05731833   -0.04299395    0.02577682
     atom    2 type  1   force =     0.00373820   -0.13260135    0.03948653
     atom    3 type  1   force =     0.01513710   -0.17334188    0.15259555
     atom    4 type  1   force =    -0.04346547    0.12328174   -0.01890378
     atom    5 type  1   force =     0.00193661    0.13771870   -0.14352292
     atom    6 type  4   force =     0.00900177    0.06987025    0.08377382
     atom    7 type  4   force =    -0.08253644    0.00420922    0.02447274
     atom    8 type  4   force =    -0.02524648   -0.04663066   -0.06933462
     atom    9 type  4   force =     0.07885666   -0.00719191   -0.02676182
     atom   10 type  3   force =    -0.01857682   -0.08056531   -1.33694148
     atom   11 type  3   force =    -0.11652211    0.11792467   -1.41001211
     atom   12 type  3   force =    -0.04382241    0.07589310    1.39918754
     atom   13 type  3   force =     0.11324007   -0.12360601    1.42330860
     atom   14 type  3   force =     1.26081622   -0.00986995   -0.63478930
     atom   15 type  3   force =    -1.13646196    0.51072368   -0.48526057
     atom   16 type  3   force =    -1.29481420    0.00258441    0.58859384
     atom   17 type  3   force =     1.12375278   -0.52019657    0.39624522
     atom   18 type  3   force =    -0.58291897   -1.23161453    0.59966176
     atom   19 type  3   force =     0.43368787    0.81027132    0.97385293
     atom   20 type  3   force =     0.05874929   -1.18637042   -1.10217699
     atom   21 type  3   force =    -0.36782183    0.97539772   -0.72396785
     atom   22 type  3   force =     0.66952632    1.15223845   -0.50308689
     atom   23 type  3   force =    -0.47113530   -0.79302731   -0.97433092
     atom   24 type  3   force =    -0.11649202    1.22628424    1.08403572
     atom   25 type  3   force =     0.43570807   -0.95064168    0.76636139
     The ionic contribution  to forces
     atom    1 type  2   force =    -1.16077731    0.18469064    2.41855432
     atom    2 type  1   force =    11.54710890   -3.43842547   -0.40021440
     atom    3 type  1   force =     5.30823803   -3.32262940   -2.99369383
     atom    4 type  1   force =   -10.55123005    2.23950949    1.24658223
     atom    5 type  1   force =    -7.23058320    3.11163284    1.89029573
     atom    6 type  4   force =     0.45819739    0.08290316    0.36459243
     atom    7 type  4   force =     3.58152138    0.41813107    1.38447152
     atom    8 type  4   force =     0.31799410   -0.27393753   -0.64999302
     atom    9 type  4   force =    -3.95852576   -0.15553469   -1.61915250
     atom   10 type  3   force =    -3.17936503   -1.24077666   -0.10998881
     atom   11 type  3   force =     9.88051436   -0.66641712    2.08289316
     atom   12 type  3   force =     5.92507865   -0.39560468   -1.52685694
     atom   13 type  3   force =   -10.29601692    1.12777988   -2.18915156
     atom   14 type  3   force =     1.60908166   -0.53112356    7.90357455
     atom   15 type  3   force =    -0.22410119   -1.28504484    4.61502095
     atom   16 type  3   force =    -1.54949455    0.51837204   -7.65957123
     atom   17 type  3   force =     0.57746159    2.84487374   -3.99939191
     atom   18 type  3   force =     1.35085245    6.51697446    2.81931996
     atom   19 type  3   force =     6.49626672   -1.09766486   -4.89497139
     atom   20 type  3   force =     3.43617394    1.00241444    9.21129278
     atom   21 type  3   force =    -7.32072490   -2.65639697    1.79528567
     atom   22 type  3   force =    -2.15620483   -4.59966826   -3.30551213
     atom   23 type  3   force =    -6.19726309    1.57518840    4.87876192
     atom   24 type  3   force =    -2.90214442   -2.32220873   -8.91624207
     atom   25 type  3   force =     6.23794208    2.36296260   -2.34590545
     The local contribution  to forces
     atom    1 type  2   force =     1.21596567   -0.15018861   -2.43059735
     atom    2 type  1   force =   -11.56903302    3.55372275    0.36084113
     atom    3 type  1   force =    -5.30573157    3.46829257    2.84469676
     atom    4 type  1   force =    10.60958464   -2.34630371   -1.22843235
     atom    5 type  1   force =     7.21322877   -3.22611041   -1.75093055
     atom    6 type  4   force =    -0.42358688   -0.11355218   -0.37056867
     atom    7 type  4   force =    -3.57479928   -0.42035639   -1.33109572
     atom    8 type  4   force =    -0.34679189    0.29628735    0.64289236
     atom    9 type  4   force =     3.95748672    0.15860162    1.56358716
     atom   10 type  3   force =     3.18697499    1.31842959    1.43075570
     atom   11 type  3   force =    -9.74394107    0.54643431   -0.69462030
     atom   12 type  3   force =    -5.86222914    0.31744332    0.13889835
     atom   13 type  3   force =    10.16344240   -1.00109620    0.78772559
     atom   14 type  3   force =    -2.99083318    0.54081065   -7.24037579
     atom   15 type  3   force =     1.46842931    0.73746304   -4.11488033
     atom   16 type  3   force =     2.96582290   -0.51926987    7.04643594
     atom   17 type  3   force =    -1.80611018   -2.29047932    3.58827280
     atom   18 type  3   force =    -0.72783957   -5.21854089   -3.43805694
     atom   19 type  3   force =    -6.95121814    0.22894876    3.88808495
     atom   20 type  3   force =    -3.50007841    0.27502741   -8.06302564
     atom   21 type  3   force =     7.70808899    1.61609059   -1.04958639
     atom   22 type  3   force =     1.43914150    3.38793405    3.82282654
     atom   23 type  3   force =     6.69265753   -0.72352284   -3.87121524
     atom   24 type  3   force =     3.03044263    1.00306475    7.78637799
     atom   25 type  3   force =    -6.69804565   -1.34566195    1.55499290
     The core correction contribution to forces
     atom    1 type  2   force =     0.00000000    0.00000000    0.00000000
     atom    2 type  1   force =    -0.00022247    0.00247393    0.00111170
     atom    3 type  1   force =     0.00036721    0.00263653   -0.00027083
     atom    4 type  1   force =     0.00099977   -0.00246218   -0.00143955
     atom    5 type  1   force =    -0.00052854   -0.00223704    0.00040526
     atom    6 type  4   force =    -0.00127231   -0.00475595   -0.00825827
     atom    7 type  4   force =     0.00649879   -0.00059158   -0.00422977
     atom    8 type  4   force =     0.00203621    0.00283366    0.00729345
     atom    9 type  4   force =    -0.00617256    0.00059405    0.00469721
     atom   10 type  3   force =    -0.00035075    0.00078912    0.01148062
     atom   11 type  3   force =     0.00145618   -0.00106760    0.01217916
     atom   12 type  3   force =     0.00073324   -0.00064633   -0.01202272
     atom   13 type  3   force =    -0.00145876    0.00112871   -0.01225605
     atom   14 type  3   force =    -0.00877915    0.00010101    0.00550444
     atom   15 type  3   force =     0.00788522   -0.00413406    0.00443918
     atom   16 type  3   force =     0.00907268   -0.00006871   -0.00517517
     atom   17 type  3   force =    -0.00779084    0.00429480   -0.00366382
     atom   18 type  3   force =     0.00416463    0.01012215   -0.00461428
     atom   19 type  3   force =    -0.00332582   -0.00582537   -0.00818106
     atom   20 type  3   force =    -0.00017439    0.00857296    0.00937158
     atom   21 type  3   force =     0.00275490   -0.00732772    0.00595565
     atom   22 type  3   force =    -0.00486171   -0.00952278    0.00376155
     atom   23 type  3   force =     0.00361477    0.00564521    0.00815331
     atom   24 type  3   force =     0.00060880   -0.00885308   -0.00917419
     atom   25 type  3   force =    -0.00330915    0.00709042   -0.00633787
     The Hubbard contrib.    to forces
     atom    1 type  2   force =     0.00000000    0.00000000    0.00000000
     atom    2 type  1   force =     0.00000000    0.00000000    0.00000000
     atom    3 type  1   force =     0.00000000    0.00000000    0.00000000
     atom    4 type  1   force =     0.00000000    0.00000000    0.00000000
     atom    5 type  1   force =     0.00000000    0.00000000    0.00000000
     atom    6 type  4   force =     0.00000000    0.00000000    0.00000000
     atom    7 type  4   force =     0.00000000    0.00000000    0.00000000
     atom    8 type  4   force =     0.00000000    0.00000000    0.00000000
     atom    9 type  4   force =     0.00000000    0.00000000    0.00000000
     atom   10 type  3   force =     0.00000000    0.00000000    0.00000000
     atom   11 type  3   force =     0.00000000    0.00000000    0.00000000
     atom   12 type  3   force =     0.00000000    0.00000000    0.00000000
     atom   13 type  3   force =     0.00000000    0.00000000    0.00000000
     atom   14 type  3   force =     0.00000000    0.00000000    0.00000000
     atom   15 type  3   force =     0.00000000    0.00000000    0.00000000
     atom   16 type  3   force =     0.00000000    0.00000000    0.00000000
     atom   17 type  3   force =     0.00000000    0.00000000    0.00000000
     atom   18 type  3   force =     0.00000000    0.00000000    0.00000000
     atom   19 type  3   force =     0.00000000    0.00000000    0.00000000
     atom   20 type  3   force =     0.00000000    0.00000000    0.00000000
     atom   21 type  3   force =     0.00000000    0.00000000    0.00000000
     atom   22 type  3   force =     0.00000000    0.00000000    0.00000000
     atom   23 type  3   force =     0.00000000    0.00000000    0.00000000
     atom   24 type  3   force =     0.00000000    0.00000000    0.00000000
     atom   25 type  3   force =     0.00000000    0.00000000    0.00000000
     The SCF correction term to forces
     atom    1 type  2   force =     0.00000722    0.00000147    0.00000009
     atom    2 type  1   force =    -0.00000544   -0.00000029   -0.00000093
     atom    3 type  1   force =     0.00000120   -0.00000124    0.00000051
     atom    4 type  1   force =    -0.00000324    0.00000027   -0.00000068
     atom    5 type  1   force =     0.00000347    0.00000092   -0.00000135
     atom    6 type  4   force =     0.00000338   -0.00000066    0.00000027
     atom    7 type  4   force =    -0.00000427    0.00000014   -0.00000068
     atom    8 type  4   force =     0.00000462   -0.00000050    0.00000017
     atom    9 type  4   force =    -0.00000325    0.00000013   -0.00000032
     atom   10 type  3   force =     0.00000235   -0.00000041   -0.00000119
     atom   11 type  3   force =    -0.00000719    0.00000053    0.00000401
     atom   12 type  3   force =     0.00000431   -0.00000078   -0.00000038
     atom   13 type  3   force =    -0.00000460    0.00000036    0.00000213
     atom   14 type  3   force =    -0.00000354   -0.00000017    0.00000043
     atom   15 type  3   force =     0.00000858    0.00000098   -0.00000228
     atom   16 type  3   force =    -0.00000455    0.00000003   -0.00000039
     atom   17 type  3   force =     0.00000782    0.00000074   -0.00000115
     atom   18 type  3   force =     0.00000078    0.00000218    0.00000212
     atom   19 type  3   force =    -0.00000475    0.00000366   -0.00000300
     atom   20 type  3   force =     0.00000531   -0.00000255    0.00000184
     atom   21 type  3   force =    -0.00000363   -0.00000131   -0.00000187
     atom   22 type  3   force =     0.00000269    0.00000071    0.00000065
     atom   23 type  3   force =    -0.00000308    0.00000202   -0.00000154
     atom   24 type  3   force =     0.00000470   -0.00000491    0.00000380
     atom   25 type  3   force =    -0.00000488   -0.00000375   -0.00000384

     Total force =     0.420940     Total SCF correction =     0.000027


     Computing stress (Cartesian axis) and pressure


     negative rho (up, down):  0.000E+00 8.573E-04
          total   stress  (Ry/bohr**3)                   (kbar)     P=      208.77
   0.00170128  -0.00010577   0.00007391          250.27      -15.56       10.87
  -0.00010577   0.00169897  -0.00019317          -15.56      249.93      -28.42
   0.00007391  -0.00019317   0.00085729           10.87      -28.42      126.11

     kinetic stress (kbar)  29850.65     36.95    -41.00
                               36.95  30047.15    -32.92
                              -41.00    -32.92  29769.63

     local   stress (kbar)  -6473.92   4463.74  -6016.23
                             4463.74 -14925.90   2432.24
                            -6016.23   2432.24  -5452.93

     nonloc. stress (kbar)  -7689.39      8.05     -0.75
                                8.05  -7636.26     14.99
                               -0.75     14.99  -7671.08

     hartree stress (kbar)  14718.31  -1715.71   2464.40
                            -1715.71  19427.19   -930.18
                             2464.40   -930.18  14923.30

     exc-cor stress (kbar)  -3141.42     -3.55      3.01
                               -3.55  -3147.88     -1.51
                                3.01     -1.51  -3145.64

     corecor stress (kbar)  -3456.92      1.14     -1.17
                                1.14  -3457.13     -0.05
                               -1.17     -0.05  -3455.83

     ewald   stress (kbar) -23557.05  -2806.19   3602.62
                            -2806.19 -20057.24  -1511.00
                             3602.62  -1511.00 -24841.34

     hubbard stress (kbar)      0.00      0.00      0.00
                                0.00      0.00      0.00
                                0.00      0.00      0.00

     DFT-D   stress (kbar)      0.00      0.00      0.00
                                0.00      0.00      0.00
                                0.00      0.00      0.00

     XDM     stress (kbar)      0.00      0.00      0.00
                                0.00      0.00      0.00
                                0.00      0.00      0.00

     dft-nl  stress (kbar)      0.00      0.00      0.00
                                0.00      0.00      0.00
                                0.00      0.00      0.00

     TS-vdW  stress (kbar)      0.00      0.00      0.00
                                0.00      0.00      0.00
                                0.00      0.00      0.00



     init_run     :   2031.70s CPU   2443.27s WALL (       1 calls)
     electrons    : 141810.51s CPU 177347.31s WALL (       1 calls)
     forces       :    318.26s CPU    319.50s WALL (       1 calls)
     stress       :    955.69s CPU    960.32s WALL (       1 calls)

     Called by init_run:
     wfcinit      :   2014.71s CPU   2421.72s WALL (       1 calls)
     wfcinit:atom :      1.36s CPU      1.61s WALL (     316 calls)
     wfcinit:wfcr :   2005.54s CPU   2410.29s WALL (     316 calls)
     potinit      :      6.90s CPU      8.78s WALL (       1 calls)
     hinit0       :      6.95s CPU      8.52s WALL (       1 calls)

     Called by electrons:
     c_bands      : 117842.58s CPU 147673.73s WALL (      31 calls)
     sum_band     :  23746.76s CPU  29393.96s WALL (      31 calls)
     v_of_rho     :     64.97s CPU     79.29s WALL (      32 calls)
     v_h          :      4.80s CPU      5.86s WALL (      32 calls)
     v_xc         :     64.90s CPU     78.17s WALL (      34 calls)
     newd         :     69.84s CPU     95.40s WALL (      32 calls)
     PAW_pot      :     31.99s CPU     39.66s WALL (      32 calls)
     mix_rho      :     42.68s CPU     51.83s WALL (      31 calls)

     Called by c_bands:
     init_us_2    :    143.52s CPU    172.37s WALL (   20540 calls)
     cegterg      : 116791.98s CPU 146338.86s WALL (    9796 calls)

     Called by sum_band:
     sum_band:wei :      0.50s CPU      0.63s WALL (      31 calls)
     sum_band:loo :  23574.30s CPU  29169.70s WALL (      31 calls)
     sum_band:buf :     35.09s CPU     39.08s WALL (    9796 calls)
     sum_band:ini :     59.71s CPU     73.40s WALL (    9796 calls)
     sum_band:cal :   1776.67s CPU   2178.93s WALL (    9796 calls)
     sum_band:bec :      5.29s CPU      5.61s WALL (    9796 calls)
     addusdens    :    135.32s CPU    183.06s WALL (      31 calls)
     addusd:skk   :      0.87s CPU      1.02s WALL (      93 calls)
     addusd:dgemm :     41.63s CPU     67.09s WALL (     186 calls)
     addusd:qvan2 :     90.05s CPU    110.99s WALL (     186 calls)

     Called by *egterg:
     cdiaghg      :   3217.50s CPU   4051.93s WALL (   36003 calls)
     cegterg:over :   5120.87s CPU   6252.69s WALL (   26207 calls)
     cegterg:upda :    945.91s CPU   1200.94s WALL (   26207 calls)
     cegterg:last :   1962.96s CPU   2488.34s WALL (   15995 calls)
     h_psi        : 100823.52s CPU 126530.07s WALL (   36319 calls)
     s_psi        :   2141.73s CPU   2700.55s WALL (   36319 calls)
     g_psi        :     15.64s CPU     20.03s WALL (   26207 calls)

     Called by h_psi:
     h_psi:calbec :   4585.33s CPU   5618.36s WALL (   36319 calls)
     vloc_psi     :  93965.49s CPU 117986.26s WALL (   36319 calls)
     add_vuspsi   :   2217.81s CPU   2860.22s WALL (   36319 calls)

     General routines
     calbec       :   6964.75s CPU   8401.73s WALL (   47695 calls)
     fft          :    104.60s CPU    122.78s WALL (     838 calls)
     ffts         :     10.16s CPU     11.96s WALL (     126 calls)
     fftw         : 115329.50s CPU 144523.35s WALL ( 6026760 calls)
     interpolate  :     10.86s CPU     13.10s WALL (      64 calls)

     Parallel routines
     fft_scatt_xy :    417.61s CPU    425.32s WALL ( 6027724 calls)
     fft_scatt_yz : 112693.92s CPU 141810.40s WALL ( 6027724 calls)

     PAW routines
     PAW_pot      :     31.99s CPU     39.66s WALL (      32 calls)

     PWSCF        :   1d16h18m CPU   2d 2h18m WALL


   This run was terminated on:  21:56:48  21Jan2023            

=------------------------------------------------------------------------------=
   JOB DONE.
=------------------------------------------------------------------------------=
Note: The following floating-point exceptions are signalling: IEEE_UNDERFLOW_FLAG IEEE_DENORMAL
Note: The following floating-point exceptions are signalling: IEEE_DENORMAL
Note: The following floating-point exceptions are signalling: IEEE_DENORMAL
Note: The following floating-point exceptions are signalling: IEEE_DENORMAL
Note: The following floating-point exceptions are signalling: IEEE_DENORMAL
Note: The following floating-point exceptions are signalling: IEEE_DENORMAL
Note: The following floating-point exceptions are signalling: IEEE_DENORMAL
Note: The following floating-point exceptions are signalling: IEEE_DENORMAL
Note: The following floating-point exceptions are signalling: IEEE_DENORMAL
Note: The following floating-point exceptions are signalling: IEEE_DENORMAL
