
     Program PWSCF v.6.7MaX starts on 26Jan2023 at 21:50: 3 

     This program is part of the open-source Quantum ESPRESSO suite
     for quantum simulation of materials; please cite
         "P. Giannozzi et al., J. Phys.:Condens. Matter 21 395502 (2009);
         "P. Giannozzi et al., J. Phys.:Condens. Matter 29 465901 (2017);
          URL http://www.quantum-espresso.org", 
     in publications or presentations arising from this work. More details at
     http://www.quantum-espresso.org/quote

     Parallel version (MPI), running on    24 processors

     MPI processes distributed on     1 nodes
     R & G space division:  proc/nbgrp/npool/nimage =      24
     Reading input from scale_3d-04.in

     Current dimensions of program PWSCF are:
     Max number of different atomic species (ntypx) = 10
     Max number of k-points (npk) =  40000
     Max angular momentum in pseudopotentials (lmaxx) =  3
     Message from routine read_pp_mesh:
     mesh size missing, using the one in header
     file Fe.pbe-spn-kjpaw_psl.0.2.1.UPF: wavefunction(s)  3D renormalized
     file O.pbe-n-kjpaw_psl.0.1.UPF: wavefunction(s)  2P renormalized

     Subspace diagonalization in iterative solution of the eigenvalue problem:
     a serial algorithm will be used


     Parallelization info
     --------------------
     sticks:   dense  smooth     PW     G-vecs:    dense   smooth      PW
     Min         883     327     88                59531    13423    1876
     Max         884     328     90                59534    13427    1877
     Sum       21211    7849   2119              1428783   322201   45025



     bravais-lattice index     =            0
     lattice parameter (alat)  =      20.3206  a.u.
     unit-cell volume          =    2383.6748 (a.u.)^3
     number of atoms/cell      =           25
     number of atomic types    =            4
     number of electrons       =       189.00
     number of Kohn-Sham states=          114
     kinetic-energy cutoff     =     100.0000  Ry
     charge density cutoff     =    1080.0000  Ry
     scf convergence threshold =      2.0E-10
     mixing beta               =       0.4000
     number of iterations used =            8  plain     mixing
     Exchange-correlation= PBE
                           (   1   4   3   4   0   0   0)

     celldm(1)=  20.320559  celldm(2)=   0.000000  celldm(3)=   0.000000
     celldm(4)=   0.000000  celldm(5)=   0.000000  celldm(6)=   0.000000

     crystal axes: (cart. coord. in units of alat)
               a(1) = (   1.000000   0.000000   0.000000 )  
               a(2) = (   0.000000   0.597590   0.000000 )  
               a(3) = (   0.000000   0.000000   0.475375 )  

     reciprocal axes: (cart. coord. in units 2 pi/alat)
               b(1) = (  1.000000  0.000000  0.000000 )  
               b(2) = (  0.000000  1.673388  0.000000 )  
               b(3) = (  0.000000  0.000000  2.103600 )  


     PseudoPot. # 1 for Fe read from file:
     /opt/QEpot/SSSP_precision_pseudos/Fe.pbe-spn-kjpaw_psl.0.2.1.UPF
     MD5 check sum: e86618425769142926afa95317d90200
     Pseudo is Projector augmented-wave + core cor, Zval = 16.0
     Generated using "atomic" code by A. Dal Corso  v.5.0.99 svn rev. 10869
     Shape of augmentation charge: PSQ
     Using radial grid of 1191 points,  6 beta functions with: 
                l(1) =   0
                l(2) =   0
                l(3) =   1
                l(4) =   1
                l(5) =   2
                l(6) =   2
     Q(r) pseudized with 0 coefficients 


     PseudoPot. # 2 for Na read from file:
     /opt/QEpot/SSSP_precision_pseudos/Na_ONCV_PBE-1.0.oncvpsp.upf
     MD5 check sum: 24a298df0a6742ae313db96548fdb2a4
     Pseudo is Norm-conserving, Zval =  9.0
     Generated using ONCVPSP code by D. R. Hamann
     Using radial grid of 1992 points,  4 beta functions with: 
                l(1) =   0
                l(2) =   0
                l(3) =   1
                l(4) =   1

     PseudoPot. # 3 for O  read from file:
     /opt/QEpot/SSSP_precision_pseudos/O.pbe-n-kjpaw_psl.0.1.UPF
     MD5 check sum: 0234752ac141de4415c5fc33072bef88
     Pseudo is Projector augmented-wave + core cor, Zval =  6.0
     Generated using "atomic" code by A. Dal Corso  v.5.0.99 svn rev. 10869
     Shape of augmentation charge: BESSEL
     Using radial grid of 1095 points,  4 beta functions with: 
                l(1) =   0
                l(2) =   0
                l(3) =   1
                l(4) =   1
     Q(r) pseudized with 0 coefficients 


     PseudoPot. # 4 for P  read from file:
     /opt/QEpot/SSSP_precision_pseudos/P.pbe-n-rrkjus_psl.1.0.0.UPF
     MD5 check sum: 8b930f418f0a4573dca56cd030ffe088
     Pseudo is Ultrasoft + core correction, Zval =  5.0
     Generated using "atomic" code by A. Dal Corso  v.5.1
     Using radial grid of 1147 points,  6 beta functions with: 
                l(1) =   0
                l(2) =   0
                l(3) =   1
                l(4) =   1
                l(5) =   2
                l(6) =   2
     Q(r) pseudized with 0 coefficients 


     atomic species   valence    mass     pseudopotential
        Fe            16.00    55.84500     Fe( 1.00)
        Na             9.00    22.98977     Na( 1.00)
        O              6.00    15.99940     O ( 1.00)
        P              5.00    30.97376     P ( 1.00)

     Starting magnetic structure 
     atomic species   magnetization
        Fe           0.312
        Na           0.000
        O            0.000
        P            0.000

     No symmetry found


                                    s                        frac. trans.

      isym =  1     identity                                     

 cryst.   s( 1) = (     1          0          0      )
                  (     0          1          0      )
                  (     0          0          1      )

 cart.    s( 1) = (  1.0000000  0.0000000  0.0000000 )
                  (  0.0000000  1.0000000  0.0000000 )
                  (  0.0000000  0.0000000  1.0000000 )


   Cartesian axes

     site n.     atom                  positions (alat units)
         1           Na  tau(   1) = (   0.9884170   0.5519173   0.4336822  )
         2           Fe  tau(   2) = (   0.2939190   0.4594911   0.4294827  )
         3           Fe  tau(   3) = (   0.2177320   0.1644388   0.2273360  )
         4           Fe  tau(   4) = (   0.7086600   0.1410366   0.0319633  )
         5           Fe  tau(   5) = (   0.7798900   0.4274680   0.2267988  )
         6           P   tau(   6) = (   0.1012260   0.4335879   0.1752619  )
         7           P   tau(   7) = (   0.3924930   0.1530332   0.4368587  )
         8           P   tau(   8) = (   0.9016400   0.1713673   0.2862122  )
         9           P   tau(   9) = (   0.6079410   0.4475058   0.0194324  )
        10           O   tau(  10) = (   0.1416670   0.4473648   0.3172181  )
        11           O   tau(  11) = (   0.3552620   0.1488776   0.1042955  )
        12           O   tau(  12) = (   0.8585950   0.1609824   0.1446159  )
        13           O   tau(  13) = (   0.6446380   0.4498639   0.3520636  )
        14           O   tau(  14) = (   0.4614060   0.4495209   0.0374586  )
        15           O   tau(  15) = (   0.0448410   0.1302746   0.3033542  )
        16           O   tau(  16) = (   0.5395180   0.1519767   0.4214712  )
        17           O   tau(  17) = (   0.9559730   0.4694917   0.1591229  )
        18           O   tau(  18) = (   0.1791430   0.5315987   0.0905885  )
        19           O   tau(  19) = (   0.3275030   0.0391284   0.3590083  )
        20           O   tau(  20) = (   0.8731620   0.3072993   0.3415036  )
        21           O   tau(  21) = (   0.6721330   0.3295756   0.0926150  )
        22           O   tau(  22) = (   0.8183970   0.0746061   0.3678950  )
        23           O   tau(  23) = (   0.6754720   0.5598432   0.0969338  )
        24           O   tau(  24) = (   0.1341870   0.2984304   0.1227919  )
        25           O   tau(  25) = (   0.3262540   0.2700252   0.3640977  )

   Crystallographic axes

     site n.     atom                  positions (cryst. coord.)
         1           Na  tau(   1) = (  0.9884170  0.9235720  0.9122940  )
         2           Fe  tau(   2) = (  0.2939190  0.7689070  0.9034600  )
         3           Fe  tau(   3) = (  0.2177320  0.2751700  0.4782240  )
         4           Fe  tau(   4) = (  0.7086600  0.2360090  0.0672380  )
         5           Fe  tau(   5) = (  0.7798900  0.7153200  0.4770940  )
         6           P   tau(   6) = (  0.1012260  0.7255610  0.3686810  )
         7           P   tau(   7) = (  0.3924930  0.2560840  0.9189760  )
         8           P   tau(   8) = (  0.9016400  0.2867640  0.6020760  )
         9           P   tau(   9) = (  0.6079410  0.7488510  0.0408780  )
        10           O   tau(  10) = (  0.1416670  0.7486150  0.6673000  )
        11           O   tau(  11) = (  0.3552620  0.2491300  0.2193960  )
        12           O   tau(  12) = (  0.8585950  0.2693860  0.3042140  )
        13           O   tau(  13) = (  0.6446380  0.7527970  0.7406010  )
        14           O   tau(  14) = (  0.4614060  0.7522230  0.0787980  )
        15           O   tau(  15) = (  0.0448410  0.2180000  0.6381360  )
        16           O   tau(  16) = (  0.5395180  0.2543160  0.8866070  )
        17           O   tau(  17) = (  0.9559730  0.7856420  0.3347310  )
        18           O   tau(  18) = (  0.1791430  0.8895710  0.1905620  )
        19           O   tau(  19) = (  0.3275030  0.0654770  0.7552100  )
        20           O   tau(  20) = (  0.8731620  0.5142310  0.7183870  )
        21           O   tau(  21) = (  0.6721330  0.5515080  0.1948250  )
        22           O   tau(  22) = (  0.8183970  0.1248450  0.7739040  )
        23           O   tau(  23) = (  0.6754720  0.9368350  0.2039100  )
        24           O   tau(  24) = (  0.1341870  0.4993900  0.2583050  )
        25           O   tau(  25) = (  0.3262540  0.4518570  0.7659160  )

     number of k points=   158  Marzari-Vanderbilt smearing, width (Ry)=  0.0073
                       cart. coord. in units 2pi/alat
        k(    1) = (   0.0000000   0.0000000   0.0000000), wk =   0.0031746
        k(    2) = (   0.0000000   0.0000000   0.2337334), wk =   0.0063492
        k(    3) = (   0.0000000   0.0000000   0.4674667), wk =   0.0063492
        k(    4) = (   0.0000000   0.0000000   0.7012001), wk =   0.0063492
        k(    5) = (   0.0000000   0.0000000   0.9349334), wk =   0.0063492
        k(    6) = (   0.0000000   0.2390555   0.0000000), wk =   0.0063492
        k(    7) = (   0.0000000   0.2390555   0.2337334), wk =   0.0063492
        k(    8) = (   0.0000000   0.2390555   0.4674667), wk =   0.0063492
        k(    9) = (   0.0000000   0.2390555   0.7012001), wk =   0.0063492
        k(   10) = (   0.0000000   0.2390555   0.9349334), wk =   0.0063492
        k(   11) = (   0.0000000   0.4781110   0.0000000), wk =   0.0063492
        k(   12) = (   0.0000000   0.4781110   0.2337334), wk =   0.0063492
        k(   13) = (   0.0000000   0.4781110   0.4674667), wk =   0.0063492
        k(   14) = (   0.0000000   0.4781110   0.7012001), wk =   0.0063492
        k(   15) = (   0.0000000   0.4781110   0.9349334), wk =   0.0063492
        k(   16) = (   0.0000000   0.7171664   0.0000000), wk =   0.0063492
        k(   17) = (   0.0000000   0.7171664   0.2337334), wk =   0.0063492
        k(   18) = (   0.0000000   0.7171664   0.4674667), wk =   0.0063492
        k(   19) = (   0.0000000   0.7171664   0.7012001), wk =   0.0063492
        k(   20) = (   0.0000000   0.7171664   0.9349334), wk =   0.0063492
        k(   21) = (   0.2000000   0.0000000   0.0000000), wk =   0.0063492
        k(   22) = (   0.2000000   0.0000000   0.2337334), wk =   0.0063492
        k(   23) = (   0.2000000   0.0000000   0.4674667), wk =   0.0063492
        k(   24) = (   0.2000000   0.0000000   0.7012001), wk =   0.0063492
        k(   25) = (   0.2000000   0.0000000   0.9349334), wk =   0.0063492
        k(   26) = (   0.2000000   0.2390555   0.0000000), wk =   0.0063492
        k(   27) = (   0.2000000   0.2390555   0.2337334), wk =   0.0063492
        k(   28) = (   0.2000000   0.2390555   0.4674667), wk =   0.0063492
        k(   29) = (   0.2000000   0.2390555   0.7012001), wk =   0.0063492
        k(   30) = (   0.2000000   0.2390555   0.9349334), wk =   0.0063492
        k(   31) = (   0.2000000   0.4781110   0.0000000), wk =   0.0063492
        k(   32) = (   0.2000000   0.4781110   0.2337334), wk =   0.0063492
        k(   33) = (   0.2000000   0.4781110   0.4674667), wk =   0.0063492
        k(   34) = (   0.2000000   0.4781110   0.7012001), wk =   0.0063492
        k(   35) = (   0.2000000   0.4781110   0.9349334), wk =   0.0063492
        k(   36) = (   0.2000000   0.7171664   0.0000000), wk =   0.0063492
        k(   37) = (   0.2000000   0.7171664   0.2337334), wk =   0.0063492
        k(   38) = (   0.2000000   0.7171664   0.4674667), wk =   0.0063492
        k(   39) = (   0.2000000   0.7171664   0.7012001), wk =   0.0063492
        k(   40) = (   0.2000000   0.7171664   0.9349334), wk =   0.0063492
        k(   41) = (   0.4000000   0.0000000   0.0000000), wk =   0.0063492
        k(   42) = (   0.4000000   0.0000000   0.2337334), wk =   0.0063492
        k(   43) = (   0.4000000   0.0000000   0.4674667), wk =   0.0063492
        k(   44) = (   0.4000000   0.0000000   0.7012001), wk =   0.0063492
        k(   45) = (   0.4000000   0.0000000   0.9349334), wk =   0.0063492
        k(   46) = (   0.4000000   0.2390555   0.0000000), wk =   0.0063492
        k(   47) = (   0.4000000   0.2390555   0.2337334), wk =   0.0063492
        k(   48) = (   0.4000000   0.2390555   0.4674667), wk =   0.0063492
        k(   49) = (   0.4000000   0.2390555   0.7012001), wk =   0.0063492
        k(   50) = (   0.4000000   0.2390555   0.9349334), wk =   0.0063492
        k(   51) = (   0.4000000   0.4781110   0.0000000), wk =   0.0063492
        k(   52) = (   0.4000000   0.4781110   0.2337334), wk =   0.0063492
        k(   53) = (   0.4000000   0.4781110   0.4674667), wk =   0.0063492
        k(   54) = (   0.4000000   0.4781110   0.7012001), wk =   0.0063492
        k(   55) = (   0.4000000   0.4781110   0.9349334), wk =   0.0063492
        k(   56) = (   0.4000000   0.7171664   0.0000000), wk =   0.0063492
        k(   57) = (   0.4000000   0.7171664   0.2337334), wk =   0.0063492
        k(   58) = (   0.4000000   0.7171664   0.4674667), wk =   0.0063492
        k(   59) = (   0.4000000   0.7171664   0.7012001), wk =   0.0063492
        k(   60) = (   0.4000000   0.7171664   0.9349334), wk =   0.0063492
        k(   61) = (   0.0000000  -0.2390555   0.2337334), wk =   0.0063492
        k(   62) = (   0.0000000  -0.2390555   0.4674667), wk =   0.0063492
        k(   63) = (   0.0000000  -0.2390555   0.7012001), wk =   0.0063492
        k(   64) = (   0.0000000  -0.2390555   0.9349334), wk =   0.0063492
        k(   65) = (   0.0000000  -0.4781110   0.2337334), wk =   0.0063492
        k(   66) = (   0.0000000  -0.4781110   0.4674667), wk =   0.0063492
        k(   67) = (   0.0000000  -0.4781110   0.7012001), wk =   0.0063492
        k(   68) = (   0.0000000  -0.4781110   0.9349334), wk =   0.0063492
        k(   69) = (   0.0000000  -0.7171664   0.2337334), wk =   0.0063492
        k(   70) = (   0.0000000  -0.7171664   0.4674667), wk =   0.0063492
        k(   71) = (   0.0000000  -0.7171664   0.7012001), wk =   0.0063492
        k(   72) = (   0.0000000  -0.7171664   0.9349334), wk =   0.0063492
        k(   73) = (  -0.2000000   0.0000000   0.2337334), wk =   0.0063492
        k(   74) = (  -0.2000000   0.0000000   0.4674667), wk =   0.0063492
        k(   75) = (  -0.2000000   0.0000000   0.7012001), wk =   0.0063492
        k(   76) = (  -0.2000000   0.0000000   0.9349334), wk =   0.0063492
        k(   77) = (  -0.2000000   0.2390555   0.0000000), wk =   0.0063492
        k(   78) = (  -0.2000000  -0.2390555   0.2337334), wk =   0.0063492
        k(   79) = (  -0.2000000   0.2390555  -0.2337334), wk =   0.0063492
        k(   80) = (   0.2000000  -0.2390555  -0.2337334), wk =   0.0063492
        k(   81) = (  -0.2000000  -0.2390555   0.4674667), wk =   0.0063492
        k(   82) = (  -0.2000000   0.2390555  -0.4674667), wk =   0.0063492
        k(   83) = (   0.2000000  -0.2390555  -0.4674667), wk =   0.0063492
        k(   84) = (  -0.2000000  -0.2390555   0.7012001), wk =   0.0063492
        k(   85) = (  -0.2000000   0.2390555  -0.7012001), wk =   0.0063492
        k(   86) = (   0.2000000  -0.2390555  -0.7012001), wk =   0.0063492
        k(   87) = (  -0.2000000  -0.2390555   0.9349334), wk =   0.0063492
        k(   88) = (  -0.2000000   0.2390555  -0.9349334), wk =   0.0063492
        k(   89) = (   0.2000000  -0.2390555  -0.9349334), wk =   0.0063492
        k(   90) = (  -0.2000000   0.4781110   0.0000000), wk =   0.0063492
        k(   91) = (  -0.2000000  -0.4781110   0.2337334), wk =   0.0063492
        k(   92) = (  -0.2000000   0.4781110  -0.2337334), wk =   0.0063492
        k(   93) = (   0.2000000  -0.4781110  -0.2337334), wk =   0.0063492
        k(   94) = (  -0.2000000  -0.4781110   0.4674667), wk =   0.0063492
        k(   95) = (  -0.2000000   0.4781110  -0.4674667), wk =   0.0063492
        k(   96) = (   0.2000000  -0.4781110  -0.4674667), wk =   0.0063492
        k(   97) = (  -0.2000000  -0.4781110   0.7012001), wk =   0.0063492
        k(   98) = (  -0.2000000   0.4781110  -0.7012001), wk =   0.0063492
        k(   99) = (   0.2000000  -0.4781110  -0.7012001), wk =   0.0063492
        k(  100) = (  -0.2000000  -0.4781110   0.9349334), wk =   0.0063492
        k(  101) = (  -0.2000000   0.4781110  -0.9349334), wk =   0.0063492
        k(  102) = (   0.2000000  -0.4781110  -0.9349334), wk =   0.0063492
        k(  103) = (  -0.2000000   0.7171664   0.0000000), wk =   0.0063492
        k(  104) = (  -0.2000000  -0.7171664   0.2337334), wk =   0.0063492
        k(  105) = (  -0.2000000   0.7171664  -0.2337334), wk =   0.0063492
        k(  106) = (   0.2000000  -0.7171664  -0.2337334), wk =   0.0063492
        k(  107) = (  -0.2000000  -0.7171664   0.4674667), wk =   0.0063492
        k(  108) = (  -0.2000000   0.7171664  -0.4674667), wk =   0.0063492
        k(  109) = (   0.2000000  -0.7171664  -0.4674667), wk =   0.0063492
        k(  110) = (  -0.2000000  -0.7171664   0.7012001), wk =   0.0063492
        k(  111) = (  -0.2000000   0.7171664  -0.7012001), wk =   0.0063492
        k(  112) = (   0.2000000  -0.7171664  -0.7012001), wk =   0.0063492
        k(  113) = (  -0.2000000  -0.7171664   0.9349334), wk =   0.0063492
        k(  114) = (  -0.2000000   0.7171664  -0.9349334), wk =   0.0063492
        k(  115) = (   0.2000000  -0.7171664  -0.9349334), wk =   0.0063492
        k(  116) = (  -0.4000000   0.0000000   0.2337334), wk =   0.0063492
        k(  117) = (  -0.4000000   0.0000000   0.4674667), wk =   0.0063492
        k(  118) = (  -0.4000000   0.0000000   0.7012001), wk =   0.0063492
        k(  119) = (  -0.4000000   0.0000000   0.9349334), wk =   0.0063492
        k(  120) = (  -0.4000000   0.2390555   0.0000000), wk =   0.0063492
        k(  121) = (  -0.4000000  -0.2390555   0.2337334), wk =   0.0063492
        k(  122) = (  -0.4000000   0.2390555  -0.2337334), wk =   0.0063492
        k(  123) = (   0.4000000  -0.2390555  -0.2337334), wk =   0.0063492
        k(  124) = (  -0.4000000  -0.2390555   0.4674667), wk =   0.0063492
        k(  125) = (  -0.4000000   0.2390555  -0.4674667), wk =   0.0063492
        k(  126) = (   0.4000000  -0.2390555  -0.4674667), wk =   0.0063492
        k(  127) = (  -0.4000000  -0.2390555   0.7012001), wk =   0.0063492
        k(  128) = (  -0.4000000   0.2390555  -0.7012001), wk =   0.0063492
        k(  129) = (   0.4000000  -0.2390555  -0.7012001), wk =   0.0063492
        k(  130) = (  -0.4000000  -0.2390555   0.9349334), wk =   0.0063492
        k(  131) = (  -0.4000000   0.2390555  -0.9349334), wk =   0.0063492
        k(  132) = (   0.4000000  -0.2390555  -0.9349334), wk =   0.0063492
        k(  133) = (  -0.4000000   0.4781110   0.0000000), wk =   0.0063492
        k(  134) = (  -0.4000000  -0.4781110   0.2337334), wk =   0.0063492
        k(  135) = (  -0.4000000   0.4781110  -0.2337334), wk =   0.0063492
        k(  136) = (   0.4000000  -0.4781110  -0.2337334), wk =   0.0063492
        k(  137) = (  -0.4000000  -0.4781110   0.4674667), wk =   0.0063492
        k(  138) = (  -0.4000000   0.4781110  -0.4674667), wk =   0.0063492
        k(  139) = (   0.4000000  -0.4781110  -0.4674667), wk =   0.0063492
        k(  140) = (  -0.4000000  -0.4781110   0.7012001), wk =   0.0063492
        k(  141) = (  -0.4000000   0.4781110  -0.7012001), wk =   0.0063492
        k(  142) = (   0.4000000  -0.4781110  -0.7012001), wk =   0.0063492
        k(  143) = (  -0.4000000  -0.4781110   0.9349334), wk =   0.0063492
        k(  144) = (  -0.4000000   0.4781110  -0.9349334), wk =   0.0063492
        k(  145) = (   0.4000000  -0.4781110  -0.9349334), wk =   0.0063492
        k(  146) = (  -0.4000000   0.7171664   0.0000000), wk =   0.0063492
        k(  147) = (  -0.4000000  -0.7171664   0.2337334), wk =   0.0063492
        k(  148) = (  -0.4000000   0.7171664  -0.2337334), wk =   0.0063492
        k(  149) = (   0.4000000  -0.7171664  -0.2337334), wk =   0.0063492
        k(  150) = (  -0.4000000  -0.7171664   0.4674667), wk =   0.0063492
        k(  151) = (  -0.4000000   0.7171664  -0.4674667), wk =   0.0063492
        k(  152) = (   0.4000000  -0.7171664  -0.4674667), wk =   0.0063492
        k(  153) = (  -0.4000000  -0.7171664   0.7012001), wk =   0.0063492
        k(  154) = (  -0.4000000   0.7171664  -0.7012001), wk =   0.0063492
        k(  155) = (   0.4000000  -0.7171664  -0.7012001), wk =   0.0063492
        k(  156) = (  -0.4000000  -0.7171664   0.9349334), wk =   0.0063492
        k(  157) = (  -0.4000000   0.7171664  -0.9349334), wk =   0.0063492
        k(  158) = (   0.4000000  -0.7171664  -0.9349334), wk =   0.0063492

                       cryst. coord.
        k(    1) = (   0.0000000   0.0000000   0.0000000), wk =   0.0031746
        k(    2) = (   0.0000000   0.0000000   0.1111111), wk =   0.0063492
        k(    3) = (   0.0000000   0.0000000   0.2222222), wk =   0.0063492
        k(    4) = (   0.0000000   0.0000000   0.3333333), wk =   0.0063492
        k(    5) = (   0.0000000   0.0000000   0.4444444), wk =   0.0063492
        k(    6) = (   0.0000000   0.1428571   0.0000000), wk =   0.0063492
        k(    7) = (   0.0000000   0.1428571   0.1111111), wk =   0.0063492
        k(    8) = (   0.0000000   0.1428571   0.2222222), wk =   0.0063492
        k(    9) = (   0.0000000   0.1428571   0.3333333), wk =   0.0063492
        k(   10) = (   0.0000000   0.1428571   0.4444444), wk =   0.0063492
        k(   11) = (   0.0000000   0.2857143   0.0000000), wk =   0.0063492
        k(   12) = (   0.0000000   0.2857143   0.1111111), wk =   0.0063492
        k(   13) = (   0.0000000   0.2857143   0.2222222), wk =   0.0063492
        k(   14) = (   0.0000000   0.2857143   0.3333333), wk =   0.0063492
        k(   15) = (   0.0000000   0.2857143   0.4444444), wk =   0.0063492
        k(   16) = (   0.0000000   0.4285714   0.0000000), wk =   0.0063492
        k(   17) = (   0.0000000   0.4285714   0.1111111), wk =   0.0063492
        k(   18) = (   0.0000000   0.4285714   0.2222222), wk =   0.0063492
        k(   19) = (   0.0000000   0.4285714   0.3333333), wk =   0.0063492
        k(   20) = (   0.0000000   0.4285714   0.4444444), wk =   0.0063492
        k(   21) = (   0.2000000   0.0000000   0.0000000), wk =   0.0063492
        k(   22) = (   0.2000000   0.0000000   0.1111111), wk =   0.0063492
        k(   23) = (   0.2000000   0.0000000   0.2222222), wk =   0.0063492
        k(   24) = (   0.2000000   0.0000000   0.3333333), wk =   0.0063492
        k(   25) = (   0.2000000   0.0000000   0.4444444), wk =   0.0063492
        k(   26) = (   0.2000000   0.1428571   0.0000000), wk =   0.0063492
        k(   27) = (   0.2000000   0.1428571   0.1111111), wk =   0.0063492
        k(   28) = (   0.2000000   0.1428571   0.2222222), wk =   0.0063492
        k(   29) = (   0.2000000   0.1428571   0.3333333), wk =   0.0063492
        k(   30) = (   0.2000000   0.1428571   0.4444444), wk =   0.0063492
        k(   31) = (   0.2000000   0.2857143   0.0000000), wk =   0.0063492
        k(   32) = (   0.2000000   0.2857143   0.1111111), wk =   0.0063492
        k(   33) = (   0.2000000   0.2857143   0.2222222), wk =   0.0063492
        k(   34) = (   0.2000000   0.2857143   0.3333333), wk =   0.0063492
        k(   35) = (   0.2000000   0.2857143   0.4444444), wk =   0.0063492
        k(   36) = (   0.2000000   0.4285714   0.0000000), wk =   0.0063492
        k(   37) = (   0.2000000   0.4285714   0.1111111), wk =   0.0063492
        k(   38) = (   0.2000000   0.4285714   0.2222222), wk =   0.0063492
        k(   39) = (   0.2000000   0.4285714   0.3333333), wk =   0.0063492
        k(   40) = (   0.2000000   0.4285714   0.4444444), wk =   0.0063492
        k(   41) = (   0.4000000   0.0000000   0.0000000), wk =   0.0063492
        k(   42) = (   0.4000000   0.0000000   0.1111111), wk =   0.0063492
        k(   43) = (   0.4000000   0.0000000   0.2222222), wk =   0.0063492
        k(   44) = (   0.4000000   0.0000000   0.3333333), wk =   0.0063492
        k(   45) = (   0.4000000   0.0000000   0.4444444), wk =   0.0063492
        k(   46) = (   0.4000000   0.1428571   0.0000000), wk =   0.0063492
        k(   47) = (   0.4000000   0.1428571   0.1111111), wk =   0.0063492
        k(   48) = (   0.4000000   0.1428571   0.2222222), wk =   0.0063492
        k(   49) = (   0.4000000   0.1428571   0.3333333), wk =   0.0063492
        k(   50) = (   0.4000000   0.1428571   0.4444444), wk =   0.0063492
        k(   51) = (   0.4000000   0.2857143   0.0000000), wk =   0.0063492
        k(   52) = (   0.4000000   0.2857143   0.1111111), wk =   0.0063492
        k(   53) = (   0.4000000   0.2857143   0.2222222), wk =   0.0063492
        k(   54) = (   0.4000000   0.2857143   0.3333333), wk =   0.0063492
        k(   55) = (   0.4000000   0.2857143   0.4444444), wk =   0.0063492
        k(   56) = (   0.4000000   0.4285714   0.0000000), wk =   0.0063492
        k(   57) = (   0.4000000   0.4285714   0.1111111), wk =   0.0063492
        k(   58) = (   0.4000000   0.4285714   0.2222222), wk =   0.0063492
        k(   59) = (   0.4000000   0.4285714   0.3333333), wk =   0.0063492
        k(   60) = (   0.4000000   0.4285714   0.4444444), wk =   0.0063492
        k(   61) = (   0.0000000  -0.1428571   0.1111111), wk =   0.0063492
        k(   62) = (   0.0000000  -0.1428571   0.2222222), wk =   0.0063492
        k(   63) = (   0.0000000  -0.1428571   0.3333333), wk =   0.0063492
        k(   64) = (   0.0000000  -0.1428571   0.4444444), wk =   0.0063492
        k(   65) = (   0.0000000  -0.2857143   0.1111111), wk =   0.0063492
        k(   66) = (   0.0000000  -0.2857143   0.2222222), wk =   0.0063492
        k(   67) = (   0.0000000  -0.2857143   0.3333333), wk =   0.0063492
        k(   68) = (   0.0000000  -0.2857143   0.4444444), wk =   0.0063492
        k(   69) = (   0.0000000  -0.4285714   0.1111111), wk =   0.0063492
        k(   70) = (   0.0000000  -0.4285714   0.2222222), wk =   0.0063492
        k(   71) = (   0.0000000  -0.4285714   0.3333333), wk =   0.0063492
        k(   72) = (   0.0000000  -0.4285714   0.4444444), wk =   0.0063492
        k(   73) = (  -0.2000000   0.0000000   0.1111111), wk =   0.0063492
        k(   74) = (  -0.2000000   0.0000000   0.2222222), wk =   0.0063492
        k(   75) = (  -0.2000000   0.0000000   0.3333333), wk =   0.0063492
        k(   76) = (  -0.2000000   0.0000000   0.4444444), wk =   0.0063492
        k(   77) = (  -0.2000000   0.1428571   0.0000000), wk =   0.0063492
        k(   78) = (  -0.2000000  -0.1428571   0.1111111), wk =   0.0063492
        k(   79) = (  -0.2000000   0.1428571  -0.1111111), wk =   0.0063492
        k(   80) = (   0.2000000  -0.1428571  -0.1111111), wk =   0.0063492
        k(   81) = (  -0.2000000  -0.1428571   0.2222222), wk =   0.0063492
        k(   82) = (  -0.2000000   0.1428571  -0.2222222), wk =   0.0063492
        k(   83) = (   0.2000000  -0.1428571  -0.2222222), wk =   0.0063492
        k(   84) = (  -0.2000000  -0.1428571   0.3333333), wk =   0.0063492
        k(   85) = (  -0.2000000   0.1428571  -0.3333333), wk =   0.0063492
        k(   86) = (   0.2000000  -0.1428571  -0.3333333), wk =   0.0063492
        k(   87) = (  -0.2000000  -0.1428571   0.4444444), wk =   0.0063492
        k(   88) = (  -0.2000000   0.1428571  -0.4444444), wk =   0.0063492
        k(   89) = (   0.2000000  -0.1428571  -0.4444444), wk =   0.0063492
        k(   90) = (  -0.2000000   0.2857143   0.0000000), wk =   0.0063492
        k(   91) = (  -0.2000000  -0.2857143   0.1111111), wk =   0.0063492
        k(   92) = (  -0.2000000   0.2857143  -0.1111111), wk =   0.0063492
        k(   93) = (   0.2000000  -0.2857143  -0.1111111), wk =   0.0063492
        k(   94) = (  -0.2000000  -0.2857143   0.2222222), wk =   0.0063492
        k(   95) = (  -0.2000000   0.2857143  -0.2222222), wk =   0.0063492
        k(   96) = (   0.2000000  -0.2857143  -0.2222222), wk =   0.0063492
        k(   97) = (  -0.2000000  -0.2857143   0.3333333), wk =   0.0063492
        k(   98) = (  -0.2000000   0.2857143  -0.3333333), wk =   0.0063492
        k(   99) = (   0.2000000  -0.2857143  -0.3333333), wk =   0.0063492
        k(  100) = (  -0.2000000  -0.2857143   0.4444444), wk =   0.0063492
        k(  101) = (  -0.2000000   0.2857143  -0.4444444), wk =   0.0063492
        k(  102) = (   0.2000000  -0.2857143  -0.4444444), wk =   0.0063492
        k(  103) = (  -0.2000000   0.4285714   0.0000000), wk =   0.0063492
        k(  104) = (  -0.2000000  -0.4285714   0.1111111), wk =   0.0063492
        k(  105) = (  -0.2000000   0.4285714  -0.1111111), wk =   0.0063492
        k(  106) = (   0.2000000  -0.4285714  -0.1111111), wk =   0.0063492
        k(  107) = (  -0.2000000  -0.4285714   0.2222222), wk =   0.0063492
        k(  108) = (  -0.2000000   0.4285714  -0.2222222), wk =   0.0063492
        k(  109) = (   0.2000000  -0.4285714  -0.2222222), wk =   0.0063492
        k(  110) = (  -0.2000000  -0.4285714   0.3333333), wk =   0.0063492
        k(  111) = (  -0.2000000   0.4285714  -0.3333333), wk =   0.0063492
        k(  112) = (   0.2000000  -0.4285714  -0.3333333), wk =   0.0063492
        k(  113) = (  -0.2000000  -0.4285714   0.4444444), wk =   0.0063492
        k(  114) = (  -0.2000000   0.4285714  -0.4444444), wk =   0.0063492
        k(  115) = (   0.2000000  -0.4285714  -0.4444444), wk =   0.0063492
        k(  116) = (  -0.4000000   0.0000000   0.1111111), wk =   0.0063492
        k(  117) = (  -0.4000000   0.0000000   0.2222222), wk =   0.0063492
        k(  118) = (  -0.4000000   0.0000000   0.3333333), wk =   0.0063492
        k(  119) = (  -0.4000000   0.0000000   0.4444444), wk =   0.0063492
        k(  120) = (  -0.4000000   0.1428571   0.0000000), wk =   0.0063492
        k(  121) = (  -0.4000000  -0.1428571   0.1111111), wk =   0.0063492
        k(  122) = (  -0.4000000   0.1428571  -0.1111111), wk =   0.0063492
        k(  123) = (   0.4000000  -0.1428571  -0.1111111), wk =   0.0063492
        k(  124) = (  -0.4000000  -0.1428571   0.2222222), wk =   0.0063492
        k(  125) = (  -0.4000000   0.1428571  -0.2222222), wk =   0.0063492
        k(  126) = (   0.4000000  -0.1428571  -0.2222222), wk =   0.0063492
        k(  127) = (  -0.4000000  -0.1428571   0.3333333), wk =   0.0063492
        k(  128) = (  -0.4000000   0.1428571  -0.3333333), wk =   0.0063492
        k(  129) = (   0.4000000  -0.1428571  -0.3333333), wk =   0.0063492
        k(  130) = (  -0.4000000  -0.1428571   0.4444444), wk =   0.0063492
        k(  131) = (  -0.4000000   0.1428571  -0.4444444), wk =   0.0063492
        k(  132) = (   0.4000000  -0.1428571  -0.4444444), wk =   0.0063492
        k(  133) = (  -0.4000000   0.2857143   0.0000000), wk =   0.0063492
        k(  134) = (  -0.4000000  -0.2857143   0.1111111), wk =   0.0063492
        k(  135) = (  -0.4000000   0.2857143  -0.1111111), wk =   0.0063492
        k(  136) = (   0.4000000  -0.2857143  -0.1111111), wk =   0.0063492
        k(  137) = (  -0.4000000  -0.2857143   0.2222222), wk =   0.0063492
        k(  138) = (  -0.4000000   0.2857143  -0.2222222), wk =   0.0063492
        k(  139) = (   0.4000000  -0.2857143  -0.2222222), wk =   0.0063492
        k(  140) = (  -0.4000000  -0.2857143   0.3333333), wk =   0.0063492
        k(  141) = (  -0.4000000   0.2857143  -0.3333333), wk =   0.0063492
        k(  142) = (   0.4000000  -0.2857143  -0.3333333), wk =   0.0063492
        k(  143) = (  -0.4000000  -0.2857143   0.4444444), wk =   0.0063492
        k(  144) = (  -0.4000000   0.2857143  -0.4444444), wk =   0.0063492
        k(  145) = (   0.4000000  -0.2857143  -0.4444444), wk =   0.0063492
        k(  146) = (  -0.4000000   0.4285714   0.0000000), wk =   0.0063492
        k(  147) = (  -0.4000000  -0.4285714   0.1111111), wk =   0.0063492
        k(  148) = (  -0.4000000   0.4285714  -0.1111111), wk =   0.0063492
        k(  149) = (   0.4000000  -0.4285714  -0.1111111), wk =   0.0063492
        k(  150) = (  -0.4000000  -0.4285714   0.2222222), wk =   0.0063492
        k(  151) = (  -0.4000000   0.4285714  -0.2222222), wk =   0.0063492
        k(  152) = (   0.4000000  -0.4285714  -0.2222222), wk =   0.0063492
        k(  153) = (  -0.4000000  -0.4285714   0.3333333), wk =   0.0063492
        k(  154) = (  -0.4000000   0.4285714  -0.3333333), wk =   0.0063492
        k(  155) = (   0.4000000  -0.4285714  -0.3333333), wk =   0.0063492
        k(  156) = (  -0.4000000  -0.4285714   0.4444444), wk =   0.0063492
        k(  157) = (  -0.4000000   0.4285714  -0.4444444), wk =   0.0063492
        k(  158) = (   0.4000000  -0.4285714  -0.4444444), wk =   0.0063492

     Dense  grid:  1428783 G-vectors     FFT dimensions: ( 216, 128, 108)

     Smooth grid:   322201 G-vectors     FFT dimensions: ( 135,  80,  64)

     Dynamical RAM for                 wfc:       2.92 MB

     Dynamical RAM for     wfc (w. buffer):     924.73 MB

     Dynamical RAM for           str. fact:       3.63 MB

     Dynamical RAM for           local pot:       0.00 MB

     Dynamical RAM for          nlocal pot:       7.16 MB

     Dynamical RAM for                qrad:      10.54 MB

     Dynamical RAM for          rho,v,vnew:      11.78 MB

     Dynamical RAM for               rhoin:       3.93 MB

     Dynamical RAM for            rho*nmix:      29.07 MB

     Dynamical RAM for           G-vectors:       3.51 MB

     Dynamical RAM for          h,s,v(r/c):       2.38 MB

     Dynamical RAM for          <psi|beta>:       0.49 MB

     Dynamical RAM for                 psi:       5.83 MB

     Dynamical RAM for                hpsi:       5.83 MB

     Dynamical RAM for                spsi:       5.83 MB

     Dynamical RAM for      wfcinit/wfcrot:       7.44 MB

     Dynamical RAM for           addusdens:     184.41 MB

     Dynamical RAM for          addusforce:     211.78 MB

     Dynamical RAM for         addusstress:     183.95 MB

     Estimated static dynamical RAM per process >    1005.23 MB

     Estimated max dynamical RAM per process >       1.19 GB

     Estimated total dynamical RAM >      28.52 GB

     Check: negative core charge=   -0.000003
     Generating pointlists ...
     new r_m :   0.0764 (alat units)  1.5523 (a.u.) for type    1
     new r_m :   0.0901 (alat units)  1.8307 (a.u.) for type    2
     new r_m :   0.0608 (alat units)  1.2356 (a.u.) for type    3
     new r_m :   0.0608 (alat units)  1.2356 (a.u.) for type    4

     Initial potential from superposition of free atoms

     starting charge  188.99132, renormalised to  189.00000
     Starting wfcs are  137 randomized atomic wfcs
     Checking if some PAW data can be deallocated... 
       PAW data deallocated on   20 nodes for type:  1
       PAW data deallocated on    8 nodes for type:  3

     total cpu time spent up to now is     1416.8 secs

     Self-consistent Calculation

     iteration #  1     ecut=   100.00 Ry     beta= 0.40
     Davidson diagonalization with overlap
     ethr =  1.00E-02,  avg # of iterations =  2.8

     negative rho (up, down):  0.000E+00 6.478E-05

     total cpu time spent up to now is     5293.3 secs

     total energy              =   -2123.74052544 Ry
     estimated scf accuracy    <       7.08818951 Ry

     total magnetization       =    19.00 Bohr mag/cell
     absolute magnetization    =    19.00 Bohr mag/cell

     iteration #  2     ecut=   100.00 Ry     beta= 0.40
     Davidson diagonalization with overlap
     ethr =  3.75E-03,  avg # of iterations =  2.0

     negative rho (up, down):  0.000E+00 2.673E-05

     total cpu time spent up to now is     9032.5 secs

     total energy              =   -2120.83349541 Ry
     estimated scf accuracy    <      37.00648743 Ry

     total magnetization       =     7.64 Bohr mag/cell
     absolute magnetization    =     9.03 Bohr mag/cell

     iteration #  3     ecut=   100.00 Ry     beta= 0.40
     Davidson diagonalization with overlap
     ethr =  3.75E-03,  avg # of iterations =  2.2

     negative rho (up, down):  0.000E+00 2.444E-05

     total cpu time spent up to now is    12249.7 secs

     total energy              =   -2123.89979102 Ry
     estimated scf accuracy    <      43.06038887 Ry

     total magnetization       =     6.95 Bohr mag/cell
     absolute magnetization    =     9.22 Bohr mag/cell

     iteration #  4     ecut=   100.00 Ry     beta= 0.40
     Davidson diagonalization with overlap
     ethr =  3.75E-03,  avg # of iterations =  1.5

     negative rho (up, down):  0.000E+00 4.132E-05

     total cpu time spent up to now is    15268.8 secs

     total energy              =   -2125.24810543 Ry
     estimated scf accuracy    <      12.10621749 Ry

     total magnetization       =    14.14 Bohr mag/cell
     absolute magnetization    =    14.27 Bohr mag/cell

     iteration #  5     ecut=   100.00 Ry     beta= 0.40
     Davidson diagonalization with overlap
     ethr =  3.75E-03,  avg # of iterations =  1.5

     negative rho (up, down):  0.000E+00 4.849E-05

     total cpu time spent up to now is    18279.3 secs

     total energy              =   -2125.63232487 Ry
     estimated scf accuracy    <       9.15518174 Ry

     total magnetization       =    14.95 Bohr mag/cell
     absolute magnetization    =    15.21 Bohr mag/cell

     iteration #  6     ecut=   100.00 Ry     beta= 0.40
     Davidson diagonalization with overlap
     ethr =  3.75E-03,  avg # of iterations =  1.5

     negative rho (up, down):  0.000E+00 1.230E-04

     total cpu time spent up to now is    21274.7 secs

     total energy              =   -2126.02788881 Ry
     estimated scf accuracy    <       1.18365473 Ry

     total magnetization       =    19.00 Bohr mag/cell
     absolute magnetization    =    19.01 Bohr mag/cell

     iteration #  7     ecut=   100.00 Ry     beta= 0.40
     Davidson diagonalization with overlap
     ethr =  6.26E-04,  avg # of iterations =  1.0

     negative rho (up, down):  0.000E+00 4.506E-04

     total cpu time spent up to now is    24171.1 secs

     total energy              =   -2125.99201576 Ry
     estimated scf accuracy    <       0.67243967 Ry

     total magnetization       =    19.00 Bohr mag/cell
     absolute magnetization    =    19.01 Bohr mag/cell

     iteration #  8     ecut=   100.00 Ry     beta= 0.40
     Davidson diagonalization with overlap
     ethr =  3.56E-04,  avg # of iterations =  1.9

     negative rho (up, down):  0.000E+00 5.473E-04

     total cpu time spent up to now is    27186.2 secs

     total energy              =   -2125.99504933 Ry
     estimated scf accuracy    <       0.72647299 Ry

     total magnetization       =    19.00 Bohr mag/cell
     absolute magnetization    =    19.01 Bohr mag/cell

     iteration #  9     ecut=   100.00 Ry     beta= 0.40
     Davidson diagonalization with overlap
     ethr =  3.56E-04,  avg # of iterations =  1.0

     negative rho (up, down):  0.000E+00 5.736E-04

     total cpu time spent up to now is    30086.2 secs

     total energy              =   -2126.00410096 Ry
     estimated scf accuracy    <       0.60906239 Ry

     total magnetization       =    19.00 Bohr mag/cell
     absolute magnetization    =    19.01 Bohr mag/cell

     iteration # 10     ecut=   100.00 Ry     beta= 0.40
     Davidson diagonalization with overlap
     ethr =  3.22E-04,  avg # of iterations =  1.0

     negative rho (up, down):  0.000E+00 8.802E-04

     total cpu time spent up to now is    32994.7 secs

     total energy              =   -2126.01304338 Ry
     estimated scf accuracy    <       0.05713536 Ry

     total magnetization       =    19.00 Bohr mag/cell
     absolute magnetization    =    19.01 Bohr mag/cell

     iteration # 11     ecut=   100.00 Ry     beta= 0.40
     Davidson diagonalization with overlap
     c_bands:  1 eigenvalues not converged
     c_bands:  1 eigenvalues not converged
     c_bands:  1 eigenvalues not converged
     c_bands:  1 eigenvalues not converged
     c_bands:  1 eigenvalues not converged
     c_bands:  1 eigenvalues not converged
     c_bands:  1 eigenvalues not converged
     c_bands:  1 eigenvalues not converged
     c_bands:  1 eigenvalues not converged
     c_bands:  1 eigenvalues not converged
     c_bands:  1 eigenvalues not converged
     c_bands:  1 eigenvalues not converged
     c_bands:  1 eigenvalues not converged
     c_bands:  1 eigenvalues not converged
     c_bands:  1 eigenvalues not converged
     ethr =  3.02E-05,  avg # of iterations = 14.9

     negative rho (up, down):  0.000E+00 9.901E-04

     total cpu time spent up to now is    37841.4 secs

     total energy              =   -2126.01690811 Ry
     estimated scf accuracy    <       0.21221230 Ry

     total magnetization       =    19.00 Bohr mag/cell
     absolute magnetization    =    19.02 Bohr mag/cell

     iteration # 12     ecut=   100.00 Ry     beta= 0.40
     Davidson diagonalization with overlap
     ethr =  3.02E-05,  avg # of iterations =  1.0

     negative rho (up, down):  0.000E+00 1.055E-03

     total cpu time spent up to now is    40747.1 secs

     total energy              =   -2126.02017936 Ry
     estimated scf accuracy    <       0.01515951 Ry

     total magnetization       =    19.00 Bohr mag/cell
     absolute magnetization    =    19.03 Bohr mag/cell

     iteration # 13     ecut=   100.00 Ry     beta= 0.40
     Davidson diagonalization with overlap
     c_bands:  1 eigenvalues not converged
     ethr =  8.02E-06,  avg # of iterations =  2.2

     negative rho (up, down):  0.000E+00 1.079E-03

     total cpu time spent up to now is    43845.5 secs

     total energy              =   -2126.02124007 Ry
     estimated scf accuracy    <       0.05312631 Ry

     total magnetization       =    19.00 Bohr mag/cell
     absolute magnetization    =    19.04 Bohr mag/cell

     iteration # 14     ecut=   100.00 Ry     beta= 0.40
     Davidson diagonalization with overlap
     ethr =  8.02E-06,  avg # of iterations =  1.0

     negative rho (up, down):  0.000E+00 1.081E-03

     total cpu time spent up to now is    46747.2 secs

     total energy              =   -2126.02189559 Ry
     estimated scf accuracy    <       0.00453509 Ry

     total magnetization       =    19.00 Bohr mag/cell
     absolute magnetization    =    19.04 Bohr mag/cell

     iteration # 15     ecut=   100.00 Ry     beta= 0.40
     Davidson diagonalization with overlap
     c_bands:  1 eigenvalues not converged
     c_bands:  1 eigenvalues not converged
     c_bands:  1 eigenvalues not converged
     c_bands:  1 eigenvalues not converged
     c_bands:  1 eigenvalues not converged
     c_bands:  1 eigenvalues not converged
     c_bands:  1 eigenvalues not converged
     c_bands:  1 eigenvalues not converged
     c_bands:  1 eigenvalues not converged
     c_bands:  1 eigenvalues not converged
     c_bands:  1 eigenvalues not converged
     c_bands:  1 eigenvalues not converged
     c_bands:  1 eigenvalues not converged
     c_bands:  1 eigenvalues not converged
     c_bands:  1 eigenvalues not converged
     c_bands:  1 eigenvalues not converged
     c_bands:  1 eigenvalues not converged
     c_bands:  1 eigenvalues not converged
     c_bands:  1 eigenvalues not converged
     c_bands:  1 eigenvalues not converged
     c_bands:  1 eigenvalues not converged
     c_bands:  1 eigenvalues not converged
     c_bands:  1 eigenvalues not converged
     c_bands:  1 eigenvalues not converged
     c_bands:  1 eigenvalues not converged
     ethr =  2.40E-06,  avg # of iterations =  7.6

     negative rho (up, down):  0.000E+00 1.082E-03

     total cpu time spent up to now is    50469.8 secs

     total energy              =   -2126.02228209 Ry
     estimated scf accuracy    <       0.00128460 Ry

     total magnetization       =    19.00 Bohr mag/cell
     absolute magnetization    =    19.05 Bohr mag/cell

     iteration # 16     ecut=   100.00 Ry     beta= 0.40
     Davidson diagonalization with overlap
     c_bands:  1 eigenvalues not converged
     c_bands:  1 eigenvalues not converged
     c_bands:  1 eigenvalues not converged
     ethr =  6.80E-07,  avg # of iterations =  4.8

     negative rho (up, down):  0.000E+00 1.073E-03

     total cpu time spent up to now is    54355.6 secs

     total energy              =   -2126.02255789 Ry
     estimated scf accuracy    <       0.00018650 Ry

     total magnetization       =    19.00 Bohr mag/cell
     absolute magnetization    =    19.05 Bohr mag/cell

     iteration # 17     ecut=   100.00 Ry     beta= 0.40
     Davidson diagonalization with overlap
     ethr =  9.87E-08,  avg # of iterations =  3.3

     negative rho (up, down):  0.000E+00 1.071E-03

     total cpu time spent up to now is    58542.6 secs

     total energy              =   -2126.02262019 Ry
     estimated scf accuracy    <       0.00007412 Ry

     total magnetization       =    19.00 Bohr mag/cell
     absolute magnetization    =    19.05 Bohr mag/cell

     iteration # 18     ecut=   100.00 Ry     beta= 0.40
     Davidson diagonalization with overlap
     ethr =  3.92E-08,  avg # of iterations =  1.0

     negative rho (up, down):  0.000E+00 1.070E-03

     total cpu time spent up to now is    61437.6 secs

     total energy              =   -2126.02262323 Ry
     estimated scf accuracy    <       0.00002196 Ry

     total magnetization       =    19.00 Bohr mag/cell
     absolute magnetization    =    19.05 Bohr mag/cell

     iteration # 19     ecut=   100.00 Ry     beta= 0.40
     Davidson diagonalization with overlap
     ethr =  1.16E-08,  avg # of iterations =  1.0

     negative rho (up, down):  0.000E+00 1.064E-03

     total cpu time spent up to now is    64339.9 secs

     total energy              =   -2126.02262458 Ry
     estimated scf accuracy    <       0.00000914 Ry

     total magnetization       =    19.00 Bohr mag/cell
     absolute magnetization    =    19.05 Bohr mag/cell

     iteration # 20     ecut=   100.00 Ry     beta= 0.40
     Davidson diagonalization with overlap
     ethr =  4.84E-09,  avg # of iterations =  1.6

     negative rho (up, down):  0.000E+00 1.066E-03

     total cpu time spent up to now is    67364.7 secs

     total energy              =   -2126.02262442 Ry
     estimated scf accuracy    <       0.00006006 Ry

     total magnetization       =    19.00 Bohr mag/cell
     absolute magnetization    =    19.05 Bohr mag/cell

     iteration # 21     ecut=   100.00 Ry     beta= 0.40
     Davidson diagonalization with overlap
     ethr =  4.84E-09,  avg # of iterations =  1.0

     negative rho (up, down):  0.000E+00 1.064E-03

     total cpu time spent up to now is    70259.9 secs

     total energy              =   -2126.02262599 Ry
     estimated scf accuracy    <       0.00001000 Ry

     total magnetization       =    19.00 Bohr mag/cell
     absolute magnetization    =    19.05 Bohr mag/cell

     iteration # 22     ecut=   100.00 Ry     beta= 0.40
     Davidson diagonalization with overlap
     ethr =  4.84E-09,  avg # of iterations =  1.0

     negative rho (up, down):  0.000E+00 1.064E-03

     total cpu time spent up to now is    73152.0 secs

     total energy              =   -2126.02262634 Ry
     estimated scf accuracy    <       0.00000293 Ry

     total magnetization       =    19.00 Bohr mag/cell
     absolute magnetization    =    19.05 Bohr mag/cell

     iteration # 23     ecut=   100.00 Ry     beta= 0.40
     Davidson diagonalization with overlap
     ethr =  1.55E-09,  avg # of iterations =  1.3

     negative rho (up, down):  0.000E+00 1.063E-03

     total cpu time spent up to now is    76087.8 secs

     total energy              =   -2126.02262654 Ry
     estimated scf accuracy    <       0.00000081 Ry

     total magnetization       =    19.00 Bohr mag/cell
     absolute magnetization    =    19.05 Bohr mag/cell

     iteration # 24     ecut=   100.00 Ry     beta= 0.40
     Davidson diagonalization with overlap
     ethr =  4.30E-10,  avg # of iterations =  3.5

     negative rho (up, down):  0.000E+00 1.063E-03

     total cpu time spent up to now is    79768.5 secs

     total energy              =   -2126.02262677 Ry
     estimated scf accuracy    <       0.00000016 Ry

     total magnetization       =    19.00 Bohr mag/cell
     absolute magnetization    =    19.05 Bohr mag/cell

     iteration # 25     ecut=   100.00 Ry     beta= 0.40
     Davidson diagonalization with overlap
     ethr =  8.47E-11,  avg # of iterations =  3.3

     negative rho (up, down):  0.000E+00 1.063E-03

     total cpu time spent up to now is    83257.7 secs

     total energy              =   -2126.02262678 Ry
     estimated scf accuracy    <       0.00000059 Ry

     total magnetization       =    19.00 Bohr mag/cell
     absolute magnetization    =    19.05 Bohr mag/cell

     iteration # 26     ecut=   100.00 Ry     beta= 0.40
     Davidson diagonalization with overlap
     ethr =  8.47E-11,  avg # of iterations =  2.0

     negative rho (up, down):  0.000E+00 1.064E-03

     total cpu time spent up to now is    86388.5 secs

     total energy              =   -2126.02262684 Ry
     estimated scf accuracy    <       0.00000015 Ry

     total magnetization       =    19.00 Bohr mag/cell
     absolute magnetization    =    19.05 Bohr mag/cell

     iteration # 27     ecut=   100.00 Ry     beta= 0.40
     Davidson diagonalization with overlap
     ethr =  8.04E-11,  avg # of iterations =  1.0

     negative rho (up, down):  0.000E+00 1.064E-03

     total cpu time spent up to now is    89284.8 secs

     total energy              =   -2126.02262685 Ry
     estimated scf accuracy    <       0.00000004 Ry

     total magnetization       =    19.00 Bohr mag/cell
     absolute magnetization    =    19.05 Bohr mag/cell

     iteration # 28     ecut=   100.00 Ry     beta= 0.40
     Davidson diagonalization with overlap
     ethr =  1.93E-11,  avg # of iterations =  2.0

     negative rho (up, down):  0.000E+00 1.064E-03

     total cpu time spent up to now is    92365.2 secs

     total energy              =   -2126.02262686 Ry
     estimated scf accuracy    <       0.00000003 Ry

     total magnetization       =    19.00 Bohr mag/cell
     absolute magnetization    =    19.05 Bohr mag/cell

     iteration # 29     ecut=   100.00 Ry     beta= 0.40
     Davidson diagonalization with overlap
     ethr =  1.69E-11,  avg # of iterations =  2.0

     negative rho (up, down):  0.000E+00 1.064E-03

     total cpu time spent up to now is    95434.0 secs

     total energy              =   -2126.02262686 Ry
     estimated scf accuracy    <       0.00000001 Ry

     total magnetization       =    19.00 Bohr mag/cell
     absolute magnetization    =    19.05 Bohr mag/cell

     iteration # 30     ecut=   100.00 Ry     beta= 0.40
     Davidson diagonalization with overlap
     ethr =  6.95E-12,  avg # of iterations =  2.1

     negative rho (up, down):  0.000E+00 1.064E-03

     total cpu time spent up to now is    98564.0 secs

     total energy              =   -2126.02262686 Ry
     estimated scf accuracy    <          9.2E-09 Ry

     total magnetization       =    19.00 Bohr mag/cell
     absolute magnetization    =    19.05 Bohr mag/cell

     iteration # 31     ecut=   100.00 Ry     beta= 0.40
     Davidson diagonalization with overlap
     ethr =  4.87E-12,  avg # of iterations =  2.1

     negative rho (up, down):  0.000E+00 1.064E-03

     total cpu time spent up to now is   101788.3 secs

     total energy              =   -2126.02262687 Ry
     estimated scf accuracy    <       0.00000001 Ry

     total magnetization       =    19.00 Bohr mag/cell
     absolute magnetization    =    19.05 Bohr mag/cell

     iteration # 32     ecut=   100.00 Ry     beta= 0.40
     Davidson diagonalization with overlap
     ethr =  4.87E-12,  avg # of iterations =  1.0

     negative rho (up, down):  0.000E+00 1.064E-03

     total cpu time spent up to now is   104687.1 secs

     total energy              =   -2126.02262687 Ry
     estimated scf accuracy    <          2.4E-09 Ry

     total magnetization       =    19.00 Bohr mag/cell
     absolute magnetization    =    19.05 Bohr mag/cell

     iteration # 33     ecut=   100.00 Ry     beta= 0.40
     Davidson diagonalization with overlap
     ethr =  1.25E-12,  avg # of iterations =  2.5

     negative rho (up, down):  0.000E+00 1.064E-03

     total cpu time spent up to now is   107839.4 secs

     total energy              =   -2126.02262687 Ry
     estimated scf accuracy    <          7.1E-09 Ry

     total magnetization       =    19.00 Bohr mag/cell
     absolute magnetization    =    19.05 Bohr mag/cell

     iteration # 34     ecut=   100.00 Ry     beta= 0.40
     Davidson diagonalization with overlap
     ethr =  1.25E-12,  avg # of iterations =  2.0

     negative rho (up, down):  0.000E+00 1.064E-03

     total cpu time spent up to now is   110908.6 secs

     total energy              =   -2126.02262687 Ry
     estimated scf accuracy    <          3.3E-09 Ry

     total magnetization       =    19.00 Bohr mag/cell
     absolute magnetization    =    19.05 Bohr mag/cell

     iteration # 35     ecut=   100.00 Ry     beta= 0.40
     Davidson diagonalization with overlap
     ethr =  1.25E-12,  avg # of iterations =  1.0

     negative rho (up, down):  0.000E+00 1.064E-03

     total cpu time spent up to now is   113803.2 secs

     total energy              =   -2126.02262687 Ry
     estimated scf accuracy    <          1.6E-09 Ry

     total magnetization       =    19.00 Bohr mag/cell
     absolute magnetization    =    19.05 Bohr mag/cell

     iteration # 36     ecut=   100.00 Ry     beta= 0.40
     Davidson diagonalization with overlap
     ethr =  8.27E-13,  avg # of iterations =  2.0

     negative rho (up, down):  0.000E+00 1.064E-03

     total cpu time spent up to now is   116862.6 secs

     total energy              =   -2126.02262687 Ry
     estimated scf accuracy    <          4.6E-10 Ry

     total magnetization       =    19.00 Bohr mag/cell
     absolute magnetization    =    19.05 Bohr mag/cell

     iteration # 37     ecut=   100.00 Ry     beta= 0.40
     Davidson diagonalization with overlap
     ethr =  2.46E-13,  avg # of iterations =  2.4

     negative rho (up, down):  0.000E+00 1.064E-03

     total cpu time spent up to now is   120041.1 secs

     total energy              =   -2126.02262687 Ry
     estimated scf accuracy    <          2.7E-10 Ry

     total magnetization       =    19.00 Bohr mag/cell
     absolute magnetization    =    19.05 Bohr mag/cell

     iteration # 38     ecut=   100.00 Ry     beta= 0.40
     Davidson diagonalization with overlap
     ethr =  1.45E-13,  avg # of iterations =  1.4

     negative rho (up, down):  0.000E+00 1.064E-03

     Magnetic moment per site:
     atom:    1    charge:    7.9556    magn:    0.0013    constr:    0.0000
     atom:    2    charge:   13.0142    magn:    3.7050    constr:    0.0000
     atom:    3    charge:   13.0273    magn:    3.6652    constr:    0.0000
     atom:    4    charge:   13.0118    magn:    3.7139    constr:    0.0000
     atom:    5    charge:   13.0447    magn:    3.6238    constr:    0.0000
     atom:    6    charge:    0.9064    magn:    0.0099    constr:    0.0000
     atom:    7    charge:    0.8972    magn:    0.0111    constr:    0.0000
     atom:    8    charge:    0.9029    magn:    0.0101    constr:    0.0000
     atom:    9    charge:    0.8983    magn:    0.0119    constr:    0.0000
     atom:   10    charge:    4.3925    magn:    0.1024    constr:    0.0000
     atom:   11    charge:    4.3792    magn:    0.1236    constr:    0.0000
     atom:   12    charge:    4.3764    magn:    0.1250    constr:    0.0000
     atom:   13    charge:    4.3796    magn:    0.1163    constr:    0.0000
     atom:   14    charge:    4.3747    magn:    0.1290    constr:    0.0000
     atom:   15    charge:    4.3704    magn:    0.1047    constr:    0.0000
     atom:   16    charge:    4.3702    magn:    0.1266    constr:    0.0000
     atom:   17    charge:    4.3718    magn:    0.0960    constr:    0.0000
     atom:   18    charge:    4.3616    magn:    0.1309    constr:    0.0000
     atom:   19    charge:    4.3581    magn:    0.1510    constr:    0.0000
     atom:   20    charge:    4.3664    magn:    0.1149    constr:    0.0000
     atom:   21    charge:    4.3594    magn:    0.1517    constr:    0.0000
     atom:   22    charge:    4.3691    magn:    0.1326    constr:    0.0000
     atom:   23    charge:    4.3606    magn:    0.1444    constr:    0.0000
     atom:   24    charge:    4.3694    magn:    0.1229    constr:    0.0000
     atom:   25    charge:    4.3517    magn:    0.1522    constr:    0.0000

     total cpu time spent up to now is   122995.9 secs

     End of self-consistent calculation

 ------ SPIN UP ------------


          k = 0.0000 0.0000 0.0000 ( 40357 PWs)   bands (ev):

   -86.5521 -86.5456 -86.2817 -86.1280 -52.6299 -52.6036 -52.5120 -52.4935
   -52.4883 -52.4657 -52.4572 -52.3837 -52.2442 -52.1156 -52.0780 -51.9167
   -45.6976 -17.7159 -17.6784 -17.6335 -16.6122 -16.4455 -16.3662 -16.2078
   -14.5342 -14.3801 -14.2968 -14.2658 -14.2341 -14.2101 -14.1834 -14.1504
   -14.0919 -14.0778 -14.0490 -14.0169  -5.0882  -4.7445  -4.5550  -4.3440
    -2.9071  -2.7699  -2.6292  -2.4649  -2.2833  -2.0837  -2.0622  -1.9413
    -1.7998  -1.7771  -1.7461  -1.6131  -0.9670  -0.9137  -0.5981  -0.4935
    -0.4760  -0.4433  -0.4339  -0.2849  -0.2596  -0.2082  -0.0891  -0.0584
     0.2266   0.3058   0.3460   0.5449   0.6107   0.6806   0.7860   0.8353
     0.9406   1.0632   1.1317   1.1752   1.2491   1.3863   1.4836   1.5072
     1.5980   1.6178   1.6752   1.7351   1.8709   1.9291   2.1064   2.2573
     2.2590   2.3065   2.3697   2.3933   2.5100   2.5999   2.6593   2.7336
     2.8988   2.9210   2.9873   3.0521   3.1469   3.2193   3.5430   3.6343
     7.3467   9.2021   9.7404  10.1230  10.4575  11.1441  11.2815  11.6149
    11.7014  11.7818

     occupation numbers 
     1.0000   1.0000   1.0000   1.0000   1.0000   1.0000   1.0000   1.0000
     1.0000   1.0000   1.0000   1.0000   1.0000   1.0000   1.0000   1.0000
     1.0000   1.0000   1.0000   1.0000   1.0000   1.0000   1.0000   1.0000
     1.0000   1.0000   1.0000   1.0000   1.0000   1.0000   1.0000   1.0000
     1.0000   1.0000   1.0000   1.0000   1.0000   1.0000   1.0000   1.0000
     1.0000   1.0000   1.0000   1.0000   1.0000   1.0000   1.0000   1.0000
     1.0000   1.0000   1.0000   1.0000   1.0000   1.0000   1.0000   1.0000
     1.0000   1.0000   1.0000   1.0000   1.0000   1.0000   1.0000   1.0000
     1.0000   1.0000   1.0000   1.0000   1.0000   1.0000   1.0000   1.0000
     1.0000   1.0000   1.0000   1.0000   1.0000   1.0000   1.0000   1.0000
     1.0000   1.0000   1.0000   1.0000   1.0000   1.0000   1.0000   1.0000
     1.0000   1.0000   1.0000   1.0000   1.0000   1.0000   1.0000   1.0000
     1.0000   1.0000   1.0000   1.0000   1.0000   1.0000   1.0000   1.0000
     0.0000   0.0000   0.0000   0.0000   0.0000   0.0000   0.0000   0.0000
     0.0000   0.0000

          k = 0.0000 0.0000 0.2337 ( 40255 PWs)   bands (ev):

   -86.5521 -86.5456 -86.2817 -86.1280 -52.6299 -52.6036 -52.5120 -52.4935
   -52.4883 -52.4657 -52.4572 -52.3837 -52.2442 -52.1156 -52.0780 -51.9167
   -45.6976 -17.7166 -17.6782 -17.6346 -16.6019 -16.4368 -16.3604 -16.2060
   -14.5413 -14.3921 -14.2967 -14.2697 -14.2431 -14.2109 -14.1857 -14.1516
   -14.0948 -14.0810 -14.0520 -14.0157  -5.0639  -4.7373  -4.5474  -4.3405
    -2.8789  -2.7619  -2.6211  -2.4524  -2.2794  -2.0849  -2.0585  -1.9110
    -1.8172  -1.7709  -1.7336  -1.6158  -0.9565  -0.9017  -0.6178  -0.4908
    -0.4695  -0.4556  -0.4138  -0.2972  -0.2467  -0.2034  -0.1146  -0.0434
     0.1918   0.3122   0.3635   0.5386   0.5896   0.6631   0.7614   0.8342
     0.9320   1.0529   1.1238   1.1647   1.2392   1.3432   1.4663   1.5311
     1.5893   1.6298   1.6711   1.7630   1.8463   1.9021   2.1066   2.2000
     2.2570   2.2988   2.3610   2.4335   2.4869   2.6131   2.6667   2.7618
     2.8906   2.9084   2.9957   3.0530   3.1484   3.2137   3.5404   3.6266
     7.4861   9.2779   9.7772  10.1463  10.4919  11.0984  11.2366  11.5215
    11.7218  11.7697

     occupation numbers 
     1.0000   1.0000   1.0000   1.0000   1.0000   1.0000   1.0000   1.0000
     1.0000   1.0000   1.0000   1.0000   1.0000   1.0000   1.0000   1.0000
     1.0000   1.0000   1.0000   1.0000   1.0000   1.0000   1.0000   1.0000
     1.0000   1.0000   1.0000   1.0000   1.0000   1.0000   1.0000   1.0000
     1.0000   1.0000   1.0000   1.0000   1.0000   1.0000   1.0000   1.0000
     1.0000   1.0000   1.0000   1.0000   1.0000   1.0000   1.0000   1.0000
     1.0000   1.0000   1.0000   1.0000   1.0000   1.0000   1.0000   1.0000
     1.0000   1.0000   1.0000   1.0000   1.0000   1.0000   1.0000   1.0000
     1.0000   1.0000   1.0000   1.0000   1.0000   1.0000   1.0000   1.0000
     1.0000   1.0000   1.0000   1.0000   1.0000   1.0000   1.0000   1.0000
     1.0000   1.0000   1.0000   1.0000   1.0000   1.0000   1.0000   1.0000
     1.0000   1.0000   1.0000   1.0000   1.0000   1.0000   1.0000   1.0000
     1.0000   1.0000   1.0000   1.0000   1.0000   1.0000   1.0000   1.0000
     0.0000   0.0000   0.0000   0.0000   0.0000   0.0000   0.0000   0.0000
     0.0000   0.0000

          k = 0.0000 0.0000 0.4675 ( 40285 PWs)   bands (ev):

   -86.5521 -86.5456 -86.2817 -86.1280 -52.6299 -52.6036 -52.5120 -52.4935
   -52.4883 -52.4657 -52.4572 -52.3837 -52.2442 -52.1156 -52.0780 -51.9167
   -45.6976 -17.7187 -17.6777 -17.6372 -16.5755 -16.4130 -16.3462 -16.2026
   -14.5597 -14.4226 -14.3012 -14.2861 -14.2560 -14.2158 -14.1889 -14.1571
   -14.1052 -14.0854 -14.0541 -14.0151  -4.9983  -4.7195  -4.5280  -4.3404
    -2.8090  -2.7393  -2.5877  -2.4318  -2.2704  -2.0819  -2.0467  -1.8830
    -1.8221  -1.7447  -1.6999  -1.6200  -0.9290  -0.8686  -0.6374  -0.5047
    -0.4812  -0.4519  -0.3547  -0.3261  -0.2354  -0.1764  -0.1473  -0.0312
     0.1564   0.2979   0.3826   0.5114   0.5426   0.6204   0.6990   0.8345
     0.8797   0.9822   1.0789   1.1574   1.2305   1.3178   1.4424   1.4846
     1.5443   1.6347   1.7026   1.7656   1.8075   1.8430   2.0901   2.1289
     2.1888   2.2871   2.4142   2.4439   2.5509   2.6202   2.7006   2.7867
     2.8738   2.9259   2.9978   3.0585   3.1543   3.2046   3.5235   3.6090
     7.8593   9.4806   9.8334  10.2221  10.6044  10.9845  11.1030  11.3396
    11.6236  11.6584

     occupation numbers 
     1.0000   1.0000   1.0000   1.0000   1.0000   1.0000   1.0000   1.0000
     1.0000   1.0000   1.0000   1.0000   1.0000   1.0000   1.0000   1.0000
     1.0000   1.0000   1.0000   1.0000   1.0000   1.0000   1.0000   1.0000
     1.0000   1.0000   1.0000   1.0000   1.0000   1.0000   1.0000   1.0000
     1.0000   1.0000   1.0000   1.0000   1.0000   1.0000   1.0000   1.0000
     1.0000   1.0000   1.0000   1.0000   1.0000   1.0000   1.0000   1.0000
     1.0000   1.0000   1.0000   1.0000   1.0000   1.0000   1.0000   1.0000
     1.0000   1.0000   1.0000   1.0000   1.0000   1.0000   1.0000   1.0000
     1.0000   1.0000   1.0000   1.0000   1.0000   1.0000   1.0000   1.0000
     1.0000   1.0000   1.0000   1.0000   1.0000   1.0000   1.0000   1.0000
     1.0000   1.0000   1.0000   1.0000   1.0000   1.0000   1.0000   1.0000
     1.0000   1.0000   1.0000   1.0000   1.0000   1.0000   1.0000   1.0000
     1.0000   1.0000   1.0000   1.0000   1.0000   1.0000   1.0000   1.0000
     0.0000   0.0000   0.0000   0.0000   0.0000   0.0000   0.0000   0.0000
     0.0000   0.0000

          k = 0.0000 0.0000 0.7012 ( 40253 PWs)   bands (ev):

   -86.5521 -86.5456 -86.2817 -86.1280 -52.6299 -52.6036 -52.5120 -52.4935
   -52.4883 -52.4657 -52.4572 -52.3837 -52.2442 -52.1156 -52.0780 -51.9167
   -45.6976 -17.7215 -17.6770 -17.6397 -16.5449 -16.3804 -16.3319 -16.2012
   -14.5813 -14.4574 -14.3310 -14.2896 -14.2637 -14.2251 -14.1910 -14.1681
   -14.1130 -14.0854 -14.0541 -14.0170  -4.9136  -4.6994  -4.5047  -4.3594
    -2.7664  -2.6743  -2.5320  -2.4205  -2.2565  -2.0757  -2.0322  -1.9357
    -1.7724  -1.7151  -1.6610  -1.5806  -0.8922  -0.8233  -0.6344  -0.5233
    -0.4608  -0.4429  -0.4032  -0.2649  -0.2013  -0.1585  -0.1273  -0.0482
     0.1409   0.2558   0.3491   0.4446   0.5130   0.5461   0.6243   0.7424
     0.8551   0.9190   1.0378   1.1409   1.2608   1.3242   1.3581   1.3970
     1.4808   1.6403   1.6787   1.6953   1.7743   1.8808   2.0109   2.0750
     2.1559   2.2872   2.4264   2.5354   2.6001   2.6853   2.7461   2.7902
     2.8560   2.9814   2.9982   3.0700   3.1556   3.2023   3.4882   3.5855
     8.3713   9.6769   9.8542  10.3506  10.6405  10.8751  10.9762  11.2298
    11.4625  11.4890

     occupation numbers 
     1.0000   1.0000   1.0000   1.0000   1.0000   1.0000   1.0000   1.0000
     1.0000   1.0000   1.0000   1.0000   1.0000   1.0000   1.0000   1.0000
     1.0000   1.0000   1.0000   1.0000   1.0000   1.0000   1.0000   1.0000
     1.0000   1.0000   1.0000   1.0000   1.0000   1.0000   1.0000   1.0000
     1.0000   1.0000   1.0000   1.0000   1.0000   1.0000   1.0000   1.0000
     1.0000   1.0000   1.0000   1.0000   1.0000   1.0000   1.0000   1.0000
     1.0000   1.0000   1.0000   1.0000   1.0000   1.0000   1.0000   1.0000
     1.0000   1.0000   1.0000   1.0000   1.0000   1.0000   1.0000   1.0000
     1.0000   1.0000   1.0000   1.0000   1.0000   1.0000   1.0000   1.0000
     1.0000   1.0000   1.0000   1.0000   1.0000   1.0000   1.0000   1.0000
     1.0000   1.0000   1.0000   1.0000   1.0000   1.0000   1.0000   1.0000
     1.0000   1.0000   1.0000   1.0000   1.0000   1.0000   1.0000   1.0000
     1.0000   1.0000   1.0000   1.0000   1.0000   1.0000   1.0000   1.0000
     0.0000   0.0000   0.0000   0.0000   0.0000   0.0000   0.0000   0.0000
     0.0000   0.0000

          k = 0.0000 0.0000 0.9349 ( 40286 PWs)   bands (ev):

   -86.5521 -86.5456 -86.2817 -86.1280 -52.6299 -52.6036 -52.5120 -52.4935
   -52.4883 -52.4657 -52.4572 -52.3837 -52.2442 -52.1156 -52.0780 -51.9167
   -45.6976 -17.7234 -17.6766 -17.6411 -16.5246 -16.3508 -16.3280 -16.2025
   -14.5954 -14.4804 -14.3558 -14.2875 -14.2695 -14.2339 -14.1938 -14.1739
   -14.1148 -14.0835 -14.0542 -14.0193  -4.8489  -4.6862  -4.4867  -4.3886
    -2.7573  -2.6140  -2.4849  -2.4176  -2.2368  -2.0854  -2.0237  -1.9609
    -1.7767  -1.7035  -1.6160  -1.5225  -0.8516  -0.7910  -0.6208  -0.5288
    -0.4704  -0.4493  -0.3982  -0.2025  -0.1611  -0.1138  -0.0882  -0.0318
     0.0748   0.1478   0.2552   0.3650   0.4676   0.5296   0.5806   0.7414
     0.7912   0.9627   1.0130   1.1478   1.1843   1.2510   1.3281   1.4005
     1.4412   1.6226   1.6485   1.6914   1.7516   1.8897   1.9632   2.0318
     2.1507   2.3005   2.4569   2.5500   2.6098   2.7414   2.7961   2.8226
     2.8690   2.9673   3.0410   3.0811   3.1554   3.1990   3.4579   3.5612
     8.9267   9.4208  10.1063  10.3866  10.5087  10.7431  11.1378  11.2330
    11.3460  11.3657

     occupation numbers 
     1.0000   1.0000   1.0000   1.0000   1.0000   1.0000   1.0000   1.0000
     1.0000   1.0000   1.0000   1.0000   1.0000   1.0000   1.0000   1.0000
     1.0000   1.0000   1.0000   1.0000   1.0000   1.0000   1.0000   1.0000
     1.0000   1.0000   1.0000   1.0000   1.0000   1.0000   1.0000   1.0000
     1.0000   1.0000   1.0000   1.0000   1.0000   1.0000   1.0000   1.0000
     1.0000   1.0000   1.0000   1.0000   1.0000   1.0000   1.0000   1.0000
     1.0000   1.0000   1.0000   1.0000   1.0000   1.0000   1.0000   1.0000
     1.0000   1.0000   1.0000   1.0000   1.0000   1.0000   1.0000   1.0000
     1.0000   1.0000   1.0000   1.0000   1.0000   1.0000   1.0000   1.0000
     1.0000   1.0000   1.0000   1.0000   1.0000   1.0000   1.0000   1.0000
     1.0000   1.0000   1.0000   1.0000   1.0000   1.0000   1.0000   1.0000
     1.0000   1.0000   1.0000   1.0000   1.0000   1.0000   1.0000   1.0000
     1.0000   1.0000   1.0000   1.0000   1.0000   1.0000   1.0000   1.0000
     0.0000   0.0000   0.0000   0.0000   0.0000   0.0000   0.0000   0.0000
     0.0000   0.0000

          k = 0.0000 0.2391 0.0000 ( 40305 PWs)   bands (ev):

   -86.5521 -86.5456 -86.2817 -86.1280 -52.6299 -52.6036 -52.5120 -52.4935
   -52.4883 -52.4657 -52.4572 -52.3837 -52.2442 -52.1156 -52.0780 -51.9167
   -45.6976 -17.7161 -17.6787 -17.6334 -16.5999 -16.4418 -16.3652 -16.2200
   -14.5352 -14.3853 -14.3089 -14.2740 -14.2458 -14.2039 -14.1811 -14.1470
   -14.0865 -14.0713 -14.0478 -14.0136  -5.0665  -4.7426  -4.5533  -4.3471
    -2.8797  -2.7433  -2.6312  -2.4654  -2.2615  -2.0829  -2.0436  -1.9316
    -1.8277  -1.7670  -1.7236  -1.6029  -0.9699  -0.9172  -0.6147  -0.5718
    -0.4877  -0.4809  -0.4157  -0.3297  -0.2497  -0.2040  -0.0551   0.0503
     0.2025   0.2989   0.3574   0.5119   0.5830   0.6161   0.7865   0.8202
     0.9418   1.0051   1.1189   1.1782   1.2266   1.3902   1.4220   1.5632
     1.5933   1.6471   1.6784   1.7610   1.8536   1.9151   2.1201   2.2041
     2.2359   2.2979   2.3606   2.4536   2.5205   2.5895   2.6404   2.7454
     2.8806   2.9274   2.9832   3.0496   3.0817   3.3210   3.5669   3.6390
     7.4971   9.2767   9.8179  10.0128  10.4635  11.1333  11.2997  11.5688
    11.7351  11.8109

     occupation numbers 
     1.0000   1.0000   1.0000   1.0000   1.0000   1.0000   1.0000   1.0000
     1.0000   1.0000   1.0000   1.0000   1.0000   1.0000   1.0000   1.0000
     1.0000   1.0000   1.0000   1.0000   1.0000   1.0000   1.0000   1.0000
     1.0000   1.0000   1.0000   1.0000   1.0000   1.0000   1.0000   1.0000
     1.0000   1.0000   1.0000   1.0000   1.0000   1.0000   1.0000   1.0000
     1.0000   1.0000   1.0000   1.0000   1.0000   1.0000   1.0000   1.0000
     1.0000   1.0000   1.0000   1.0000   1.0000   1.0000   1.0000   1.0000
     1.0000   1.0000   1.0000   1.0000   1.0000   1.0000   1.0000   1.0000
     1.0000   1.0000   1.0000   1.0000   1.0000   1.0000   1.0000   1.0000
     1.0000   1.0000   1.0000   1.0000   1.0000   1.0000   1.0000   1.0000
     1.0000   1.0000   1.0000   1.0000   1.0000   1.0000   1.0000   1.0000
     1.0000   1.0000   1.0000   1.0000   1.0000   1.0000   1.0000   1.0000
     1.0000   1.0000   1.0000   1.0000   1.0000   1.0000   1.0000   1.0000
     0.0000   0.0000   0.0000   0.0000   0.0000   0.0000   0.0000   0.0000
     0.0000   0.0000

          k = 0.0000 0.2391 0.2337 ( 40274 PWs)   bands (ev):

   -86.5521 -86.5456 -86.2817 -86.1280 -52.6299 -52.6036 -52.5120 -52.4935
   -52.4883 -52.4657 -52.4572 -52.3837 -52.2442 -52.1156 -52.0780 -51.9167
   -45.6976 -17.7164 -17.6785 -17.6346 -16.5919 -16.4353 -16.3614 -16.2117
   -14.5416 -14.3962 -14.3142 -14.2786 -14.2569 -14.2045 -14.1716 -14.1478
   -14.0960 -14.0781 -14.0446 -14.0153  -5.0432  -4.7345  -4.5454  -4.3413
    -2.8552  -2.7368  -2.6308  -2.4467  -2.2529  -2.0760  -2.0230  -1.9083
    -1.8205  -1.7655  -1.7348  -1.6215  -0.9687  -0.9109  -0.6494  -0.5463
    -0.5035  -0.4335  -0.4192  -0.3246  -0.2643  -0.2242  -0.0318   0.0389
     0.1553   0.2831   0.3878   0.5089   0.5664   0.6032   0.7473   0.8864
     0.9410   0.9771   1.1388   1.1610   1.2350   1.3639   1.4240   1.5305
     1.5969   1.6291   1.6546   1.7492   1.8270   1.9132   2.0951   2.1824
     2.2491   2.2794   2.3839   2.4022   2.4960   2.6026   2.6761   2.7645
     2.8802   2.9246   2.9673   3.0815   3.1048   3.3192   3.5423   3.6448
     7.6294   9.3613   9.8600  10.0403  10.4803  11.0804  11.2928  11.4931
    11.7338  11.7869

     occupation numbers 
     1.0000   1.0000   1.0000   1.0000   1.0000   1.0000   1.0000   1.0000
     1.0000   1.0000   1.0000   1.0000   1.0000   1.0000   1.0000   1.0000
     1.0000   1.0000   1.0000   1.0000   1.0000   1.0000   1.0000   1.0000
     1.0000   1.0000   1.0000   1.0000   1.0000   1.0000   1.0000   1.0000
     1.0000   1.0000   1.0000   1.0000   1.0000   1.0000   1.0000   1.0000
     1.0000   1.0000   1.0000   1.0000   1.0000   1.0000   1.0000   1.0000
     1.0000   1.0000   1.0000   1.0000   1.0000   1.0000   1.0000   1.0000
     1.0000   1.0000   1.0000   1.0000   1.0000   1.0000   1.0000   1.0000
     1.0000   1.0000   1.0000   1.0000   1.0000   1.0000   1.0000   1.0000
     1.0000   1.0000   1.0000   1.0000   1.0000   1.0000   1.0000   1.0000
     1.0000   1.0000   1.0000   1.0000   1.0000   1.0000   1.0000   1.0000
     1.0000   1.0000   1.0000   1.0000   1.0000   1.0000   1.0000   1.0000
     1.0000   1.0000   1.0000   1.0000   1.0000   1.0000   1.0000   1.0000
     0.0000   0.0000   0.0000   0.0000   0.0000   0.0000   0.0000   0.0000
     0.0000   0.0000

          k = 0.0000 0.2391 0.4675 ( 40259 PWs)   bands (ev):

   -86.5521 -86.5456 -86.2817 -86.1280 -52.6299 -52.6036 -52.5120 -52.4935
   -52.4883 -52.4657 -52.4572 -52.3837 -52.2442 -52.1156 -52.0780 -51.9167
   -45.6976 -17.7181 -17.6780 -17.6372 -16.5676 -16.4139 -16.3487 -16.2014
   -14.5597 -14.4239 -14.3279 -14.2977 -14.2650 -14.2094 -14.1663 -14.1513
   -14.1129 -14.0851 -14.0460 -14.0138  -4.9790  -4.7146  -4.5281  -4.3355
    -2.7904  -2.7202  -2.5962  -2.4214  -2.2415  -2.0656  -1.9947  -1.8761
    -1.8358  -1.7529  -1.7123  -1.6220  -0.9525  -0.8883  -0.6718  -0.5309
    -0.5102  -0.4311  -0.3655  -0.3171  -0.2963  -0.2231  -0.0159   0.0195
     0.1208   0.2741   0.3799   0.4861   0.5305   0.5813   0.6786   0.8398
     0.9308   1.0095   1.0945   1.1773   1.1961   1.3214   1.4037   1.4500
     1.5615   1.6319   1.6729   1.7034   1.7822   1.8712   2.0494   2.1238
     2.2134   2.2708   2.3554   2.4448   2.5265   2.6358   2.7210   2.7792
     2.8660   2.9377   2.9771   3.1085   3.1442   3.2986   3.5171   3.6370
     7.9880   9.5708   9.9141  10.1275  10.6003  11.0011  11.1411  11.3415
    11.5454  11.6875

     occupation numbers 
     1.0000   1.0000   1.0000   1.0000   1.0000   1.0000   1.0000   1.0000
     1.0000   1.0000   1.0000   1.0000   1.0000   1.0000   1.0000   1.0000
     1.0000   1.0000   1.0000   1.0000   1.0000   1.0000   1.0000   1.0000
     1.0000   1.0000   1.0000   1.0000   1.0000   1.0000   1.0000   1.0000
     1.0000   1.0000   1.0000   1.0000   1.0000   1.0000   1.0000   1.0000
     1.0000   1.0000   1.0000   1.0000   1.0000   1.0000   1.0000   1.0000
     1.0000   1.0000   1.0000   1.0000   1.0000   1.0000   1.0000   1.0000
     1.0000   1.0000   1.0000   1.0000   1.0000   1.0000   1.0000   1.0000
     1.0000   1.0000   1.0000   1.0000   1.0000   1.0000   1.0000   1.0000
     1.0000   1.0000   1.0000   1.0000   1.0000   1.0000   1.0000   1.0000
     1.0000   1.0000   1.0000   1.0000   1.0000   1.0000   1.0000   1.0000
     1.0000   1.0000   1.0000   1.0000   1.0000   1.0000   1.0000   1.0000
     1.0000   1.0000   1.0000   1.0000   1.0000   1.0000   1.0000   1.0000
     0.0000   0.0000   0.0000   0.0000   0.0000   0.0000   0.0000   0.0000
     0.0000   0.0000

          k = 0.0000 0.2391 0.7012 ( 40257 PWs)   bands (ev):

   -86.5521 -86.5456 -86.2817 -86.1280 -52.6299 -52.6036 -52.5120 -52.4935
   -52.4883 -52.4657 -52.4572 -52.3837 -52.2442 -52.1156 -52.0780 -51.9167
   -45.6976 -17.7207 -17.6773 -17.6397 -16.5380 -16.3840 -16.3346 -16.1955
   -14.5815 -14.4569 -14.3525 -14.3139 -14.2714 -14.2136 -14.1677 -14.1615
   -14.1216 -14.0886 -14.0470 -14.0130  -4.8958  -4.6922  -4.5101  -4.3458
    -2.7495  -2.6614  -2.5354  -2.4089  -2.2287  -2.0526  -1.9836  -1.9301
    -1.8131  -1.7156  -1.6691  -1.5743  -0.9201  -0.8658  -0.6667  -0.5315
    -0.5021  -0.4110  -0.3846  -0.3369  -0.2056  -0.1822  -0.0320   0.0029
     0.1064   0.2594   0.3142   0.4481   0.4823   0.5507   0.6183   0.7556
     0.9341   0.9412   1.0341   1.0907   1.2306   1.2909   1.3338   1.4084
     1.4853   1.5926   1.6867   1.7164   1.7659   1.8162   1.9737   2.1005
     2.1744   2.2403   2.3515   2.5268   2.5954   2.6626   2.7553   2.8014
     2.8598   2.9524   3.0203   3.1289   3.1929   3.2579   3.4895   3.6189
     8.4851   9.8027   9.8878  10.2832  10.6918  10.8950  11.0118  11.2001
    11.3852  11.5170

     occupation numbers 
     1.0000   1.0000   1.0000   1.0000   1.0000   1.0000   1.0000   1.0000
     1.0000   1.0000   1.0000   1.0000   1.0000   1.0000   1.0000   1.0000
     1.0000   1.0000   1.0000   1.0000   1.0000   1.0000   1.0000   1.0000
     1.0000   1.0000   1.0000   1.0000   1.0000   1.0000   1.0000   1.0000
     1.0000   1.0000   1.0000   1.0000   1.0000   1.0000   1.0000   1.0000
     1.0000   1.0000   1.0000   1.0000   1.0000   1.0000   1.0000   1.0000
     1.0000   1.0000   1.0000   1.0000   1.0000   1.0000   1.0000   1.0000
     1.0000   1.0000   1.0000   1.0000   1.0000   1.0000   1.0000   1.0000
     1.0000   1.0000   1.0000   1.0000   1.0000   1.0000   1.0000   1.0000
     1.0000   1.0000   1.0000   1.0000   1.0000   1.0000   1.0000   1.0000
     1.0000   1.0000   1.0000   1.0000   1.0000   1.0000   1.0000   1.0000
     1.0000   1.0000   1.0000   1.0000   1.0000   1.0000   1.0000   1.0000
     1.0000   1.0000   1.0000   1.0000   1.0000   1.0000   1.0000   1.0000
     0.0000   0.0000   0.0000   0.0000   0.0000   0.0000   0.0000   0.0000
     0.0000   0.0000

          k = 0.0000 0.2391 0.9349 ( 40230 PWs)   bands (ev):

   -86.5521 -86.5456 -86.2817 -86.1280 -52.6299 -52.6036 -52.5120 -52.4935
   -52.4883 -52.4657 -52.4572 -52.3837 -52.2442 -52.1156 -52.0780 -51.9167
   -45.6976 -17.7228 -17.6768 -17.6411 -16.5175 -16.3545 -16.3287 -16.1985
   -14.5959 -14.4799 -14.3722 -14.3178 -14.2762 -14.2179 -14.1835 -14.1651
   -14.1194 -14.0871 -14.0465 -14.0132  -4.8322  -4.6775  -4.4926  -4.3735
    -2.7365  -2.6017  -2.4841  -2.4099  -2.2122  -2.0673  -2.0041  -1.9434
    -1.8226  -1.6787  -1.6180  -1.5216  -0.8854  -0.8482  -0.6398  -0.5499
    -0.4866  -0.4621  -0.3881  -0.2616  -0.1278  -0.1027  -0.0478  -0.0311
     0.0799   0.2020   0.2637   0.3691   0.4444   0.5226   0.5858   0.7481
     0.8217   0.9427   0.9971   1.0900   1.1539   1.2284   1.3219   1.3870
     1.4547   1.5853   1.6607   1.7081   1.7650   1.8267   1.9296   2.1043
     2.1476   2.2122   2.4008   2.5543   2.6173   2.6745   2.7880   2.8357
     2.8875   2.9606   3.0467   3.1360   3.1933   3.2545   3.4714   3.5936
     9.0278   9.5234  10.1476  10.4512  10.4971  10.7492  11.1363  11.2409
    11.2992  11.3621

     occupation numbers 
     1.0000   1.0000   1.0000   1.0000   1.0000   1.0000   1.0000   1.0000
     1.0000   1.0000   1.0000   1.0000   1.0000   1.0000   1.0000   1.0000
     1.0000   1.0000   1.0000   1.0000   1.0000   1.0000   1.0000   1.0000
     1.0000   1.0000   1.0000   1.0000   1.0000   1.0000   1.0000   1.0000
     1.0000   1.0000   1.0000   1.0000   1.0000   1.0000   1.0000   1.0000
[...]
     atom   16 type  3   force =    -0.05468304   -0.00046690    0.01793358
     atom   17 type  3   force =     0.05164873   -0.01621811    0.01022815
     atom   18 type  3   force =    -0.02355602   -0.04877741    0.02215962
     atom   19 type  3   force =     0.01594605    0.03651961    0.02997055
     atom   20 type  3   force =     0.00043416   -0.05139903   -0.04236661
     atom   21 type  3   force =    -0.01117877    0.04381126   -0.02040079
     atom   22 type  3   force =     0.02581258    0.04477839   -0.01809802
     atom   23 type  3   force =    -0.01794338   -0.03582680   -0.03078153
     atom   24 type  3   force =    -0.00328881    0.05105979    0.03972648
     atom   25 type  3   force =     0.01487827   -0.04344194    0.02280778
     The non-local contrib.  to forces
     atom    1 type  2   force =    -0.05868280   -0.03863376   -0.00117330
     atom    2 type  1   force =     0.03230261   -0.15113250   -0.00082573
     atom    3 type  1   force =    -0.01636029   -0.22375569    0.11169819
     atom    4 type  1   force =    -0.07409327    0.14112200    0.02178211
     atom    5 type  1   force =     0.03543829    0.20122025   -0.11198210
     atom    6 type  4   force =    -0.04095142    0.04037136    0.00197779
     atom    7 type  4   force =    -0.01003708    0.00512720   -0.04968466
     atom    8 type  4   force =     0.02882673   -0.03149885    0.01273150
     atom    9 type  4   force =     0.00721833   -0.00860704    0.05160790
     atom   10 type  3   force =    -0.01441819   -0.07541727   -1.39078074
     atom   11 type  3   force =    -0.15284273    0.12882233   -1.46164113
     atom   12 type  3   force =    -0.06979059    0.07112271    1.45982013
     atom   13 type  3   force =     0.14536648   -0.13642313    1.47468577
     atom   14 type  3   force =     1.31890907   -0.00506276   -0.65041697
     atom   15 type  3   force =    -1.19444996    0.54377085   -0.48055762
     atom   16 type  3   force =    -1.35123474   -0.00499632    0.60633644
     atom   17 type  3   force =     1.18268485   -0.54763033    0.37523526
     atom   18 type  3   force =    -0.61618939   -1.34398961    0.53669138
     atom   19 type  3   force =     0.43875276    0.90217046    0.93141074
     atom   20 type  3   force =     0.02407595   -1.24357351   -1.09658039
     atom   21 type  3   force =    -0.36170023    1.06675320   -0.66704690
     atom   22 type  3   force =     0.70629571    1.24986284   -0.42381341
     atom   23 type  3   force =    -0.48495798   -0.88349111   -0.93269445
     atom   24 type  3   force =    -0.09345000    1.27443979    1.07644073
     atom   25 type  3   force =     0.43771180   -1.04377831    0.71419873
     The ionic contribution  to forces
     atom    1 type  2   force =    -1.02497497    0.49633105    1.68602037
     atom    2 type  1   force =    11.61482277   -3.05773113   -0.62561022
     atom    3 type  1   force =     3.23795024   -2.88996347   -2.26360995
     atom    4 type  1   force =   -10.84166904    1.96141895    1.33441851
     atom    5 type  1   force =    -5.06661928    2.72923780    1.35525475
     atom    6 type  4   force =    -0.21102100   -0.27921455   -0.15769557
     atom    7 type  4   force =     3.95518001    0.36820809    0.61953238
     atom    8 type  4   force =     1.00581899   -0.01267515   -0.02957208
     atom    9 type  4   force =    -4.28959783   -0.10928188   -0.81300575
     atom   10 type  3   force =    -2.79920054   -1.12085574    0.46699794
     atom   11 type  3   force =     8.98904588   -0.63232882    2.07773599
     atom   12 type  3   force =     5.23229942   -0.24145268   -1.80268125
     atom   13 type  3   force =    -9.34795043    1.06272563   -2.14818481
     atom   14 type  3   force =     1.70431142   -0.45063764    6.43906185
     atom   15 type  3   force =    -0.29892007   -0.95722255    3.75134033
     atom   16 type  3   force =    -1.66739677    0.43145934   -6.24491490
     atom   17 type  3   force =     0.49152119    2.18750006   -3.03298392
     atom   18 type  3   force =     0.98165170    5.92712808    2.56878277
     atom   19 type  3   force =     5.90568580   -1.29206814   -3.87824309
     atom   20 type  3   force =     3.37597232    0.62913872    7.74519373
     atom   21 type  3   force =    -6.80292888   -2.76394363    1.19227331
     atom   22 type  3   force =    -1.45532383   -4.31010668   -3.00123561
     atom   23 type  3   force =    -5.66972675    1.74151306    3.86399710
     atom   24 type  3   force =    -2.83033351   -1.88275872   -7.41818610
     atom   25 type  3   force =     5.81140312    2.46557999   -1.68468576
     The local contribution  to forces
     atom    1 type  2   force =     1.08593180   -0.45603218   -1.68275690
     atom    2 type  1   force =   -11.64835717    3.21578838    0.62824507
     atom    3 type  1   force =    -3.21937697    3.12690715    2.14688040
     atom    4 type  1   force =    10.92010687   -2.10842493   -1.35831360
     atom    5 type  1   force =     5.02789145   -2.94140042   -1.23862178
     atom    6 type  4   force =     0.25481854    0.23580876    0.15781861
     atom    7 type  4   force =    -3.94737331   -0.37350179   -0.56547257
     atom    8 type  4   force =    -1.03859786    0.04671185    0.01411946
     atom    9 type  4   force =     4.28573033    0.11762758    0.75669378
     atom   10 type  3   force =     2.81008814    1.19552718    0.86340178
     atom   11 type  3   force =    -8.83792889    0.50823155   -0.68422513
     atom   12 type  3   force =    -5.16251525    0.17048740    0.40577651
     atom   13 type  3   force =     9.20264178   -0.93103513    0.74369119
     atom   14 type  3   force =    -2.95952619    0.45580832   -5.81524330
     atom   15 type  3   force =     1.43164858    0.43591235   -3.29011695
     atom   16 type  3   force =     2.95144552   -0.42695809    5.66281129
     atom   17 type  3   force =    -1.61166357   -1.66166677    2.67203655
     atom   18 type  3   force =    -0.39460372   -4.64508884   -3.07845530
     atom   19 type  3   force =    -6.32436733    0.43469493    2.98596693
     atom   20 type  3   force =    -3.39960504    0.55151542   -6.70193486
     atom   21 type  3   force =     7.15007640    1.75099152   -0.55210388
     atom   22 type  3   force =     0.78133959    3.11730376    3.40324842
     atom   23 type  3   force =     6.13215940   -0.90190700   -2.97123801
     atom   24 type  3   force =     2.91981155    0.67112993    6.39221795
     atom   25 type  3   force =    -6.23011563   -1.47501217    1.00025593
     The core correction contribution to forces
     atom    1 type  2   force =     0.00000000    0.00000000    0.00000000
     atom    2 type  1   force =    -0.00074865    0.00143731    0.00057164
     atom    3 type  1   force =     0.00091910    0.00173834   -0.00035227
     atom    4 type  1   force =     0.00119649   -0.00149556   -0.00100586
     atom    5 type  1   force =    -0.00108962   -0.00174178    0.00042889
     atom    6 type  4   force =     0.00335823   -0.00250744   -0.00000518
     atom    7 type  4   force =     0.00070187   -0.00069195    0.00373455
     atom    8 type  4   force =    -0.00268814    0.00170337   -0.00099100
     atom    9 type  4   force =    -0.00048716    0.00076379   -0.00367541
     atom   10 type  3   force =    -0.00051342    0.00072774    0.01301967
     atom   11 type  3   force =     0.00211398   -0.00130341    0.01373327
     atom   12 type  3   force =     0.00127250   -0.00062637   -0.01373775
     atom   13 type  3   force =    -0.00204351    0.00139944   -0.01382801
     atom   14 type  3   force =    -0.01217382    0.00005683    0.00669454
     atom   15 type  3   force =     0.01101699   -0.00549277    0.00511302
     atom   16 type  3   force =     0.01250593    0.00002865   -0.00629942
     atom   17 type  3   force =    -0.01089965    0.00557862   -0.00405847
     atom   18 type  3   force =     0.00558241    0.01317379   -0.00485831
     atom   19 type  3   force =    -0.00412299   -0.00827596   -0.00916405
     atom   20 type  3   force =    -0.00001267    0.01152311    0.01095256
     atom   21 type  3   force =     0.00337747   -0.00998731    0.00647898
     atom   22 type  3   force =    -0.00649999   -0.01228210    0.00370176
     atom   23 type  3   force =     0.00458490    0.00805649    0.00915547
     atom   24 type  3   force =     0.00067986   -0.01175029   -0.01074634
     atom   25 type  3   force =    -0.00411885    0.00976802   -0.00696104
     The Hubbard contrib.    to forces
     atom    1 type  2   force =     0.00000000    0.00000000    0.00000000
     atom    2 type  1   force =     0.00000000    0.00000000    0.00000000
     atom    3 type  1   force =     0.00000000    0.00000000    0.00000000
     atom    4 type  1   force =     0.00000000    0.00000000    0.00000000
     atom    5 type  1   force =     0.00000000    0.00000000    0.00000000
     atom    6 type  4   force =     0.00000000    0.00000000    0.00000000
     atom    7 type  4   force =     0.00000000    0.00000000    0.00000000
     atom    8 type  4   force =     0.00000000    0.00000000    0.00000000
     atom    9 type  4   force =     0.00000000    0.00000000    0.00000000
     atom   10 type  3   force =     0.00000000    0.00000000    0.00000000
     atom   11 type  3   force =     0.00000000    0.00000000    0.00000000
     atom   12 type  3   force =     0.00000000    0.00000000    0.00000000
     atom   13 type  3   force =     0.00000000    0.00000000    0.00000000
     atom   14 type  3   force =     0.00000000    0.00000000    0.00000000
     atom   15 type  3   force =     0.00000000    0.00000000    0.00000000
     atom   16 type  3   force =     0.00000000    0.00000000    0.00000000
     atom   17 type  3   force =     0.00000000    0.00000000    0.00000000
     atom   18 type  3   force =     0.00000000    0.00000000    0.00000000
     atom   19 type  3   force =     0.00000000    0.00000000    0.00000000
     atom   20 type  3   force =     0.00000000    0.00000000    0.00000000
     atom   21 type  3   force =     0.00000000    0.00000000    0.00000000
     atom   22 type  3   force =     0.00000000    0.00000000    0.00000000
     atom   23 type  3   force =     0.00000000    0.00000000    0.00000000
     atom   24 type  3   force =     0.00000000    0.00000000    0.00000000
     atom   25 type  3   force =     0.00000000    0.00000000    0.00000000
     The SCF correction term to forces
     atom    1 type  2   force =     0.00000598    0.00000062    0.00000022
     atom    2 type  1   force =    -0.00000240    0.00000015   -0.00000047
     atom    3 type  1   force =     0.00000241    0.00000045   -0.00000002
     atom    4 type  1   force =    -0.00000287   -0.00000031   -0.00000076
     atom    5 type  1   force =     0.00000155   -0.00000040    0.00000007
     atom    6 type  4   force =     0.00000329   -0.00000010   -0.00000017
     atom    7 type  4   force =    -0.00000242   -0.00000005   -0.00000006
     atom    8 type  4   force =     0.00000246   -0.00000045    0.00000030
     atom    9 type  4   force =    -0.00000316    0.00000005   -0.00000050
     atom   10 type  3   force =     0.00000425    0.00000014    0.00000088
     atom   11 type  3   force =    -0.00000262   -0.00000009    0.00000049
     atom   12 type  3   force =     0.00000215   -0.00000065   -0.00000068
     atom   13 type  3   force =    -0.00000475    0.00000049    0.00000229
     atom   14 type  3   force =    -0.00000500    0.00000009   -0.00000082
     atom   15 type  3   force =     0.00000412    0.00000002   -0.00000031
     atom   16 type  3   force =    -0.00000297   -0.00000010    0.00000016
     atom   17 type  3   force =     0.00000592    0.00000071   -0.00000127
     atom   18 type  3   force =     0.00000299   -0.00000043   -0.00000091
     atom   19 type  3   force =    -0.00000218   -0.00000129    0.00000003
     atom   20 type  3   force =     0.00000361   -0.00000237    0.00000235
     atom   21 type  3   force =    -0.00000351   -0.00000212   -0.00000230
     atom   22 type  3   force =     0.00000113    0.00000097    0.00000080
     atom   23 type  3   force =    -0.00000293    0.00000215   -0.00000164
     atom   24 type  3   force =     0.00000330   -0.00000051    0.00000024
     atom   25 type  3   force =    -0.00000215    0.00000094   -0.00000009

     Total force =     0.222346     Total SCF correction =     0.000018


     Computing stress (Cartesian axis) and pressure


     negative rho (up, down):  0.000E+00 1.064E-03
          total   stress  (Ry/bohr**3)                   (kbar)     P=     -122.11
  -0.00112025   0.00009267  -0.00002805         -164.79       13.63       -4.13
   0.00009267  -0.00063298  -0.00008379           13.63      -93.12      -12.33
  -0.00002805  -0.00008379  -0.00073711           -4.13      -12.33     -108.43

     kinetic stress (kbar)  23712.88     41.79    -46.23
                               41.79  23919.24    -17.03
                              -46.23    -17.03  23789.61

     local   stress (kbar)  -7273.13   3412.58  -4243.20
                             3412.58 -13350.06   1795.24
                            -4243.20   1795.24  -6639.14

     nonloc. stress (kbar)  -6035.33      6.42      1.01
                                6.42  -5997.13      3.86
                                1.01      3.86  -6010.55

     hartree stress (kbar)  12770.90  -1353.73   1766.73
                            -1353.73  16239.07   -715.64
                             1766.73   -715.64  12963.61

     exc-cor stress (kbar)  -2514.92     -2.52      1.97
                               -2.52  -2520.23     -1.02
                                1.97     -1.02  -2518.27

     corecor stress (kbar)  -2819.52      0.51     -0.59
                                0.51  -2821.25      0.17
                               -0.59      0.17  -2821.18

     ewald   stress (kbar) -18005.67  -2091.43   2516.19
                            -2091.43 -15562.76  -1077.90
                             2516.19  -1077.90 -18872.52

     hubbard stress (kbar)      0.00      0.00      0.00
                                0.00      0.00      0.00
                                0.00      0.00      0.00

     DFT-D   stress (kbar)      0.00      0.00      0.00
                                0.00      0.00      0.00
                                0.00      0.00      0.00

     XDM     stress (kbar)      0.00      0.00      0.00
                                0.00      0.00      0.00
                                0.00      0.00      0.00

     dft-nl  stress (kbar)      0.00      0.00      0.00
                                0.00      0.00      0.00
                                0.00      0.00      0.00

     TS-vdW  stress (kbar)      0.00      0.00      0.00
                                0.00      0.00      0.00
                                0.00      0.00      0.00



     init_run     :   1324.91s CPU   1394.89s WALL (       1 calls)
     electrons    : 113246.07s CPU 121579.27s WALL (       1 calls)
     forces       :    225.59s CPU    227.21s WALL (       1 calls)
     stress       :    942.72s CPU    992.30s WALL (       1 calls)

     Called by init_run:
     wfcinit      :   1309.73s CPU   1378.17s WALL (       1 calls)
     wfcinit:atom :      1.25s CPU      1.33s WALL (     316 calls)
     wfcinit:wfcr :   1302.55s CPU   1370.61s WALL (     316 calls)
     potinit      :      6.50s CPU      6.86s WALL (       1 calls)
     hinit0       :      4.90s CPU      5.61s WALL (       1 calls)

     Called by electrons:
     c_bands      :  94649.33s CPU 101472.71s WALL (      38 calls)
     sum_band     :  18312.45s CPU  19781.55s WALL (      38 calls)
     v_of_rho     :    101.65s CPU    110.60s WALL (      39 calls)
     v_h          :      7.82s CPU      8.25s WALL (      39 calls)
     v_xc         :     99.16s CPU    107.71s WALL (      41 calls)
     newd         :     80.96s CPU    103.90s WALL (      39 calls)
     PAW_pot      :     23.98s CPU     25.97s WALL (      39 calls)
     mix_rho      :     64.30s CPU     69.20s WALL (      38 calls)

     Called by c_bands:
     init_us_2    :    193.52s CPU    212.23s WALL (   24964 calls)
     cegterg      :  93425.40s CPU 100122.06s WALL (   12008 calls)

     Called by sum_band:
     sum_band:wei :      0.64s CPU      0.71s WALL (      38 calls)
     sum_band:loo :  18135.73s CPU  19566.88s WALL (      38 calls)
     sum_band:buf :     54.23s CPU     57.58s WALL (   12008 calls)
     sum_band:ini :     88.61s CPU     98.10s WALL (   12008 calls)
     sum_band:cal :   1677.69s CPU   1811.85s WALL (   12008 calls)
     sum_band:bec :      7.71s CPU      8.31s WALL (   12008 calls)
     addusdens    :    142.60s CPU    178.59s WALL (      38 calls)
     addusd:skk   :      1.12s CPU      1.35s WALL (     114 calls)
     addusd:dgemm :     56.21s CPU     81.55s WALL (     228 calls)
     addusd:qvan2 :     82.72s CPU     92.42s WALL (     228 calls)

     Called by *egterg:
     cdiaghg      :   3895.71s CPU   4209.30s WALL (   39973 calls)
     cegterg:over :   5011.03s CPU   5348.59s WALL (   27965 calls)
     cegterg:upda :    682.62s CPU    743.19s WALL (   27965 calls)
     cegterg:last :   1460.19s CPU   1589.65s WALL (   19089 calls)
     h_psi        :  77190.14s CPU  82687.30s WALL (   40289 calls)
     s_psi        :   1675.14s CPU   1820.68s WALL (   40289 calls)
     g_psi        :     12.24s CPU     13.25s WALL (   27965 calls)

     Called by h_psi:
     h_psi:calbec :   4361.11s CPU   4674.32s WALL (   40289 calls)
     vloc_psi     :  70930.63s CPU  75936.51s WALL (   40289 calls)
     add_vuspsi   :   1815.77s CPU   1989.79s WALL (   40289 calls)

     General routines
     calbec       :   6399.90s CPU   6852.35s WALL (   53877 calls)
     fft          :    163.05s CPU    175.75s WALL (    1013 calls)
     ffts         :      2.49s CPU      2.89s WALL (     154 calls)
     fftw         :  86939.42s CPU  93226.82s WALL ( 7279818 calls)
     interpolate  :     12.02s CPU     13.29s WALL (      78 calls)

     Parallel routines
     fft_scatt_xy :    367.89s CPU    368.63s WALL ( 7280985 calls)
     fft_scatt_yz :  84306.80s CPU  90601.67s WALL ( 7280985 calls)

     PAW routines
     PAW_pot      :     23.98s CPU     25.97s WALL (      39 calls)

     PWSCF        :   1d 8h 9m CPU   1d10h30m WALL


   This run was terminated on:   8:20:19  28Jan2023            

=------------------------------------------------------------------------------=
   JOB DONE.
=------------------------------------------------------------------------------=
Note: The following floating-point exceptions are signalling: IEEE_UNDERFLOW_FLAG IEEE_DENORMAL
Note: The following floating-point exceptions are signalling: IEEE_DENORMAL
Note: The following floating-point exceptions are signalling: IEEE_DENORMAL
Note: The following floating-point exceptions are signalling: IEEE_DENORMAL
Note: The following floating-point exceptions are signalling: IEEE_DENORMAL
Note: The following floating-point exceptions are signalling: IEEE_DENORMAL
Note: The following floating-point exceptions are signalling: IEEE_DENORMAL
Note: The following floating-point exceptions are signalling: IEEE_DENORMAL
Note: The following floating-point exceptions are signalling: IEEE_DENORMAL
Note: The following floating-point exceptions are signalling: IEEE_DENORMAL
Note: The following floating-point exceptions are signalling: IEEE_DENORMAL
Note: The following floating-point exceptions are signalling: IEEE_DENORMAL
Note: The following floating-point exceptions are signalling: IEEE_DENORMAL
Note: The following floating-point exceptions are signalling: IEEE_DENORMAL
Note: The following floating-point exceptions are signalling: IEEE_DENORMAL
Note: The following floating-point exceptions are signalling: IEEE_DENORMAL
Note: The following floating-point exceptions are signalling: IEEE_DENORMAL
