
     Program PWSCF v.6.7MaX starts on 19Jan2023 at 10:40:23 

     This program is part of the open-source Quantum ESPRESSO suite
     for quantum simulation of materials; please cite
         "P. Giannozzi et al., J. Phys.:Condens. Matter 21 395502 (2009);
         "P. Giannozzi et al., J. Phys.:Condens. Matter 29 465901 (2017);
          URL http://www.quantum-espresso.org", 
     in publications or presentations arising from this work. More details at
     http://www.quantum-espresso.org/quote

     Parallel version (MPI), running on    12 processors

     MPI processes distributed on     1 nodes
     R & G space division:  proc/nbgrp/npool/nimage =      12
     Reading input from scale_1da-03.in

     Current dimensions of program PWSCF are:
     Max number of different atomic species (ntypx) = 10
     Max number of k-points (npk) =  40000
     Max angular momentum in pseudopotentials (lmaxx) =  3
     Message from routine read_pp_mesh:
     mesh size missing, using the one in header
     file Fe.pbe-spn-kjpaw_psl.0.2.1.UPF: wavefunction(s)  3D renormalized
     file O.pbe-n-kjpaw_psl.0.1.UPF: wavefunction(s)  2P renormalized

     Subspace diagonalization in iterative solution of the eigenvalue problem:
     a serial algorithm will be used


     Parallelization info
     --------------------
     sticks:   dense  smooth     PW     G-vecs:    dense   smooth      PW
     Min        1682     623    168               109717    24735    3479
     Max        1683     624    170               109719    24737    3480
     Sum       20195    7485   2029              1316619   296831   41755



     bravais-lattice index     =            0
     lattice parameter (alat)  =      19.9928  a.u.
     unit-cell volume          =    2196.3637 (a.u.)^3
     number of atoms/cell      =           25
     number of atomic types    =            4
     number of electrons       =       189.00
     number of Kohn-Sham states=          114
     kinetic-energy cutoff     =     100.0000  Ry
     charge density cutoff     =    1080.0000  Ry
     scf convergence threshold =      2.0E-10
     mixing beta               =       0.4000
     number of iterations used =            8  plain     mixing
     Exchange-correlation= PBE
                           (   1   4   3   4   0   0   0)

     celldm(1)=  19.992808  celldm(2)=   0.000000  celldm(3)=   0.000000
     celldm(4)=   0.000000  celldm(5)=   0.000000  celldm(6)=   0.000000

     crystal axes: (cart. coord. in units of alat)
               a(1) = (   1.000000   0.000000   0.000000 )  
               a(2) = (   0.000000   0.587793   0.000000 )  
               a(3) = (   0.000000   0.000000   0.467582 )  

     reciprocal axes: (cart. coord. in units 2 pi/alat)
               b(1) = (  1.000000  0.000000  0.000000 )  
               b(2) = (  0.000000  1.701278  0.000000 )  
               b(3) = (  0.000000  0.000000  2.138660 )  


     PseudoPot. # 1 for Fe read from file:
     /opt/QEpot/SSSP_precision_pseudos/Fe.pbe-spn-kjpaw_psl.0.2.1.UPF
     MD5 check sum: e86618425769142926afa95317d90200
     Pseudo is Projector augmented-wave + core cor, Zval = 16.0
     Generated using "atomic" code by A. Dal Corso  v.5.0.99 svn rev. 10869
     Shape of augmentation charge: PSQ
     Using radial grid of 1191 points,  6 beta functions with: 
                l(1) =   0
                l(2) =   0
                l(3) =   1
                l(4) =   1
                l(5) =   2
                l(6) =   2
     Q(r) pseudized with 0 coefficients 


     PseudoPot. # 2 for Na read from file:
     /opt/QEpot/SSSP_precision_pseudos/Na_ONCV_PBE-1.0.oncvpsp.upf
     MD5 check sum: 24a298df0a6742ae313db96548fdb2a4
     Pseudo is Norm-conserving, Zval =  9.0
     Generated using ONCVPSP code by D. R. Hamann
     Using radial grid of 1992 points,  4 beta functions with: 
                l(1) =   0
                l(2) =   0
                l(3) =   1
                l(4) =   1

     PseudoPot. # 3 for O  read from file:
     /opt/QEpot/SSSP_precision_pseudos/O.pbe-n-kjpaw_psl.0.1.UPF
     MD5 check sum: 0234752ac141de4415c5fc33072bef88
     Pseudo is Projector augmented-wave + core cor, Zval =  6.0
     Generated using "atomic" code by A. Dal Corso  v.5.0.99 svn rev. 10869
     Shape of augmentation charge: BESSEL
     Using radial grid of 1095 points,  4 beta functions with: 
                l(1) =   0
                l(2) =   0
                l(3) =   1
                l(4) =   1
     Q(r) pseudized with 0 coefficients 


     PseudoPot. # 4 for P  read from file:
     /opt/QEpot/SSSP_precision_pseudos/P.pbe-n-rrkjus_psl.1.0.0.UPF
     MD5 check sum: 8b930f418f0a4573dca56cd030ffe088
     Pseudo is Ultrasoft + core correction, Zval =  5.0
     Generated using "atomic" code by A. Dal Corso  v.5.1
     Using radial grid of 1147 points,  6 beta functions with: 
                l(1) =   0
                l(2) =   0
                l(3) =   1
                l(4) =   1
                l(5) =   2
                l(6) =   2
     Q(r) pseudized with 0 coefficients 


     atomic species   valence    mass     pseudopotential
        Fe            16.00    55.84500     Fe( 1.00)
        Na             9.00    22.98977     Na( 1.00)
        O              6.00    15.99940     O ( 1.00)
        P              5.00    30.97376     P ( 1.00)

     Starting magnetic structure 
     atomic species   magnetization
        Fe           0.312
        Na           0.000
        O            0.000
        P            0.000

     No symmetry found


                                    s                        frac. trans.

      isym =  1     identity                                     

 cryst.   s( 1) = (     1          0          0      )
                  (     0          1          0      )
                  (     0          0          1      )

 cart.    s( 1) = (  1.0000000  0.0000000  0.0000000 )
                  (  0.0000000  1.0000000  0.0000000 )
                  (  0.0000000  0.0000000  1.0000000 )


   Cartesian axes

     site n.     atom                  positions (alat units)
         1           Na  tau(   1) = (   0.9884170   0.5428695   0.4265727  )
         2           Fe  tau(   2) = (   0.2939190   0.4519584   0.4224420  )
         3           Fe  tau(   3) = (   0.2177320   0.1617431   0.2236092  )
         4           Fe  tau(   4) = (   0.7086600   0.1387245   0.0314393  )
         5           Fe  tau(   5) = (   0.7798900   0.4204604   0.2230808  )
         6           P   tau(   6) = (   0.1012260   0.4264799   0.1723888  )
         7           P   tau(   7) = (   0.3924930   0.1505245   0.4296971  )
         8           P   tau(   8) = (   0.9016400   0.1685580   0.2815202  )
         9           P   tau(   9) = (   0.6079410   0.4401696   0.0191138  )
        10           O   tau(  10) = (   0.1416670   0.4400309   0.3120178  )
        11           O   tau(  11) = (   0.3552620   0.1464370   0.1025857  )
        12           O   tau(  12) = (   0.8585950   0.1583433   0.1422451  )
        13           O   tau(  13) = (   0.6446380   0.4424891   0.3462920  )
        14           O   tau(  14) = (   0.4614060   0.4421517   0.0368446  )
        15           O   tau(  15) = (   0.0448410   0.1281390   0.2983812  )
        16           O   tau(  16) = (   0.5395180   0.1494853   0.4145619  )
        17           O   tau(  17) = (   0.9559730   0.4617952   0.1565143  )
        18           O   tau(  18) = (   0.1791430   0.5228839   0.0891034  )
        19           O   tau(  19) = (   0.3275030   0.0384869   0.3531229  )
        20           O   tau(  20) = (   0.8731620   0.3022616   0.3359052  )
        21           O   tau(  21) = (   0.6721330   0.3241727   0.0910968  )
        22           O   tau(  22) = (   0.8183970   0.0733831   0.3618639  )
        23           O   tau(  23) = (   0.6754720   0.5506654   0.0953447  )
        24           O   tau(  24) = (   0.1341870   0.2935381   0.1207789  )
        25           O   tau(  25) = (   0.3262540   0.2655985   0.3581289  )

   Crystallographic axes

     site n.     atom                  positions (cryst. coord.)
         1           Na  tau(   1) = (  0.9884170  0.9235720  0.9122940  )
         2           Fe  tau(   2) = (  0.2939190  0.7689070  0.9034600  )
         3           Fe  tau(   3) = (  0.2177320  0.2751700  0.4782240  )
         4           Fe  tau(   4) = (  0.7086600  0.2360090  0.0672380  )
         5           Fe  tau(   5) = (  0.7798900  0.7153200  0.4770940  )
         6           P   tau(   6) = (  0.1012260  0.7255610  0.3686810  )
         7           P   tau(   7) = (  0.3924930  0.2560840  0.9189760  )
         8           P   tau(   8) = (  0.9016400  0.2867640  0.6020760  )
         9           P   tau(   9) = (  0.6079410  0.7488510  0.0408780  )
        10           O   tau(  10) = (  0.1416670  0.7486150  0.6673000  )
        11           O   tau(  11) = (  0.3552620  0.2491300  0.2193960  )
        12           O   tau(  12) = (  0.8585950  0.2693860  0.3042140  )
        13           O   tau(  13) = (  0.6446380  0.7527970  0.7406010  )
        14           O   tau(  14) = (  0.4614060  0.7522230  0.0787980  )
        15           O   tau(  15) = (  0.0448410  0.2180000  0.6381360  )
        16           O   tau(  16) = (  0.5395180  0.2543160  0.8866070  )
        17           O   tau(  17) = (  0.9559730  0.7856420  0.3347310  )
        18           O   tau(  18) = (  0.1791430  0.8895710  0.1905620  )
        19           O   tau(  19) = (  0.3275030  0.0654770  0.7552100  )
        20           O   tau(  20) = (  0.8731620  0.5142310  0.7183870  )
        21           O   tau(  21) = (  0.6721330  0.5515080  0.1948250  )
        22           O   tau(  22) = (  0.8183970  0.1248450  0.7739040  )
        23           O   tau(  23) = (  0.6754720  0.9368350  0.2039100  )
        24           O   tau(  24) = (  0.1341870  0.4993900  0.2583050  )
        25           O   tau(  25) = (  0.3262540  0.4518570  0.7659160  )

     number of k points=   158  Marzari-Vanderbilt smearing, width (Ry)=  0.0073
                       cart. coord. in units 2pi/alat
        k(    1) = (   0.0000000   0.0000000   0.0000000), wk =   0.0031746
        k(    2) = (   0.0000000   0.0000000   0.2376289), wk =   0.0063492
        k(    3) = (   0.0000000   0.0000000   0.4752578), wk =   0.0063492
        k(    4) = (   0.0000000   0.0000000   0.7128867), wk =   0.0063492
        k(    5) = (   0.0000000   0.0000000   0.9505157), wk =   0.0063492
        k(    6) = (   0.0000000   0.2430397   0.0000000), wk =   0.0063492
        k(    7) = (   0.0000000   0.2430397   0.2376289), wk =   0.0063492
        k(    8) = (   0.0000000   0.2430397   0.4752578), wk =   0.0063492
        k(    9) = (   0.0000000   0.2430397   0.7128867), wk =   0.0063492
        k(   10) = (   0.0000000   0.2430397   0.9505157), wk =   0.0063492
        k(   11) = (   0.0000000   0.4860795   0.0000000), wk =   0.0063492
        k(   12) = (   0.0000000   0.4860795   0.2376289), wk =   0.0063492
        k(   13) = (   0.0000000   0.4860795   0.4752578), wk =   0.0063492
        k(   14) = (   0.0000000   0.4860795   0.7128867), wk =   0.0063492
        k(   15) = (   0.0000000   0.4860795   0.9505157), wk =   0.0063492
        k(   16) = (   0.0000000   0.7291192   0.0000000), wk =   0.0063492
        k(   17) = (   0.0000000   0.7291192   0.2376289), wk =   0.0063492
        k(   18) = (   0.0000000   0.7291192   0.4752578), wk =   0.0063492
        k(   19) = (   0.0000000   0.7291192   0.7128867), wk =   0.0063492
        k(   20) = (   0.0000000   0.7291192   0.9505157), wk =   0.0063492
        k(   21) = (   0.2000000   0.0000000   0.0000000), wk =   0.0063492
        k(   22) = (   0.2000000   0.0000000   0.2376289), wk =   0.0063492
        k(   23) = (   0.2000000   0.0000000   0.4752578), wk =   0.0063492
        k(   24) = (   0.2000000   0.0000000   0.7128867), wk =   0.0063492
        k(   25) = (   0.2000000   0.0000000   0.9505157), wk =   0.0063492
        k(   26) = (   0.2000000   0.2430397   0.0000000), wk =   0.0063492
        k(   27) = (   0.2000000   0.2430397   0.2376289), wk =   0.0063492
        k(   28) = (   0.2000000   0.2430397   0.4752578), wk =   0.0063492
        k(   29) = (   0.2000000   0.2430397   0.7128867), wk =   0.0063492
        k(   30) = (   0.2000000   0.2430397   0.9505157), wk =   0.0063492
        k(   31) = (   0.2000000   0.4860795   0.0000000), wk =   0.0063492
        k(   32) = (   0.2000000   0.4860795   0.2376289), wk =   0.0063492
        k(   33) = (   0.2000000   0.4860795   0.4752578), wk =   0.0063492
        k(   34) = (   0.2000000   0.4860795   0.7128867), wk =   0.0063492
        k(   35) = (   0.2000000   0.4860795   0.9505157), wk =   0.0063492
        k(   36) = (   0.2000000   0.7291192   0.0000000), wk =   0.0063492
        k(   37) = (   0.2000000   0.7291192   0.2376289), wk =   0.0063492
        k(   38) = (   0.2000000   0.7291192   0.4752578), wk =   0.0063492
        k(   39) = (   0.2000000   0.7291192   0.7128867), wk =   0.0063492
        k(   40) = (   0.2000000   0.7291192   0.9505157), wk =   0.0063492
        k(   41) = (   0.4000000   0.0000000   0.0000000), wk =   0.0063492
        k(   42) = (   0.4000000   0.0000000   0.2376289), wk =   0.0063492
        k(   43) = (   0.4000000   0.0000000   0.4752578), wk =   0.0063492
        k(   44) = (   0.4000000   0.0000000   0.7128867), wk =   0.0063492
        k(   45) = (   0.4000000   0.0000000   0.9505157), wk =   0.0063492
        k(   46) = (   0.4000000   0.2430397   0.0000000), wk =   0.0063492
        k(   47) = (   0.4000000   0.2430397   0.2376289), wk =   0.0063492
        k(   48) = (   0.4000000   0.2430397   0.4752578), wk =   0.0063492
        k(   49) = (   0.4000000   0.2430397   0.7128867), wk =   0.0063492
        k(   50) = (   0.4000000   0.2430397   0.9505157), wk =   0.0063492
        k(   51) = (   0.4000000   0.4860795   0.0000000), wk =   0.0063492
        k(   52) = (   0.4000000   0.4860795   0.2376289), wk =   0.0063492
        k(   53) = (   0.4000000   0.4860795   0.4752578), wk =   0.0063492
        k(   54) = (   0.4000000   0.4860795   0.7128867), wk =   0.0063492
        k(   55) = (   0.4000000   0.4860795   0.9505157), wk =   0.0063492
        k(   56) = (   0.4000000   0.7291192   0.0000000), wk =   0.0063492
        k(   57) = (   0.4000000   0.7291192   0.2376289), wk =   0.0063492
        k(   58) = (   0.4000000   0.7291192   0.4752578), wk =   0.0063492
        k(   59) = (   0.4000000   0.7291192   0.7128867), wk =   0.0063492
        k(   60) = (   0.4000000   0.7291192   0.9505157), wk =   0.0063492
        k(   61) = (   0.0000000  -0.2430397   0.2376289), wk =   0.0063492
        k(   62) = (   0.0000000  -0.2430397   0.4752578), wk =   0.0063492
        k(   63) = (   0.0000000  -0.2430397   0.7128867), wk =   0.0063492
        k(   64) = (   0.0000000  -0.2430397   0.9505157), wk =   0.0063492
        k(   65) = (   0.0000000  -0.4860795   0.2376289), wk =   0.0063492
        k(   66) = (   0.0000000  -0.4860795   0.4752578), wk =   0.0063492
        k(   67) = (   0.0000000  -0.4860795   0.7128867), wk =   0.0063492
        k(   68) = (   0.0000000  -0.4860795   0.9505157), wk =   0.0063492
        k(   69) = (   0.0000000  -0.7291192   0.2376289), wk =   0.0063492
        k(   70) = (   0.0000000  -0.7291192   0.4752578), wk =   0.0063492
        k(   71) = (   0.0000000  -0.7291192   0.7128867), wk =   0.0063492
        k(   72) = (   0.0000000  -0.7291192   0.9505157), wk =   0.0063492
        k(   73) = (  -0.2000000   0.0000000   0.2376289), wk =   0.0063492
        k(   74) = (  -0.2000000   0.0000000   0.4752578), wk =   0.0063492
        k(   75) = (  -0.2000000   0.0000000   0.7128867), wk =   0.0063492
        k(   76) = (  -0.2000000   0.0000000   0.9505157), wk =   0.0063492
        k(   77) = (  -0.2000000   0.2430397   0.0000000), wk =   0.0063492
        k(   78) = (  -0.2000000  -0.2430397   0.2376289), wk =   0.0063492
        k(   79) = (  -0.2000000   0.2430397  -0.2376289), wk =   0.0063492
        k(   80) = (   0.2000000  -0.2430397  -0.2376289), wk =   0.0063492
        k(   81) = (  -0.2000000  -0.2430397   0.4752578), wk =   0.0063492
        k(   82) = (  -0.2000000   0.2430397  -0.4752578), wk =   0.0063492
        k(   83) = (   0.2000000  -0.2430397  -0.4752578), wk =   0.0063492
        k(   84) = (  -0.2000000  -0.2430397   0.7128867), wk =   0.0063492
        k(   85) = (  -0.2000000   0.2430397  -0.7128867), wk =   0.0063492
        k(   86) = (   0.2000000  -0.2430397  -0.7128867), wk =   0.0063492
        k(   87) = (  -0.2000000  -0.2430397   0.9505157), wk =   0.0063492
        k(   88) = (  -0.2000000   0.2430397  -0.9505157), wk =   0.0063492
        k(   89) = (   0.2000000  -0.2430397  -0.9505157), wk =   0.0063492
        k(   90) = (  -0.2000000   0.4860795   0.0000000), wk =   0.0063492
        k(   91) = (  -0.2000000  -0.4860795   0.2376289), wk =   0.0063492
        k(   92) = (  -0.2000000   0.4860795  -0.2376289), wk =   0.0063492
        k(   93) = (   0.2000000  -0.4860795  -0.2376289), wk =   0.0063492
        k(   94) = (  -0.2000000  -0.4860795   0.4752578), wk =   0.0063492
        k(   95) = (  -0.2000000   0.4860795  -0.4752578), wk =   0.0063492
        k(   96) = (   0.2000000  -0.4860795  -0.4752578), wk =   0.0063492
        k(   97) = (  -0.2000000  -0.4860795   0.7128867), wk =   0.0063492
        k(   98) = (  -0.2000000   0.4860795  -0.7128867), wk =   0.0063492
        k(   99) = (   0.2000000  -0.4860795  -0.7128867), wk =   0.0063492
        k(  100) = (  -0.2000000  -0.4860795   0.9505157), wk =   0.0063492
        k(  101) = (  -0.2000000   0.4860795  -0.9505157), wk =   0.0063492
        k(  102) = (   0.2000000  -0.4860795  -0.9505157), wk =   0.0063492
        k(  103) = (  -0.2000000   0.7291192   0.0000000), wk =   0.0063492
        k(  104) = (  -0.2000000  -0.7291192   0.2376289), wk =   0.0063492
        k(  105) = (  -0.2000000   0.7291192  -0.2376289), wk =   0.0063492
        k(  106) = (   0.2000000  -0.7291192  -0.2376289), wk =   0.0063492
        k(  107) = (  -0.2000000  -0.7291192   0.4752578), wk =   0.0063492
        k(  108) = (  -0.2000000   0.7291192  -0.4752578), wk =   0.0063492
        k(  109) = (   0.2000000  -0.7291192  -0.4752578), wk =   0.0063492
        k(  110) = (  -0.2000000  -0.7291192   0.7128867), wk =   0.0063492
        k(  111) = (  -0.2000000   0.7291192  -0.7128867), wk =   0.0063492
        k(  112) = (   0.2000000  -0.7291192  -0.7128867), wk =   0.0063492
        k(  113) = (  -0.2000000  -0.7291192   0.9505157), wk =   0.0063492
        k(  114) = (  -0.2000000   0.7291192  -0.9505157), wk =   0.0063492
        k(  115) = (   0.2000000  -0.7291192  -0.9505157), wk =   0.0063492
        k(  116) = (  -0.4000000   0.0000000   0.2376289), wk =   0.0063492
        k(  117) = (  -0.4000000   0.0000000   0.4752578), wk =   0.0063492
        k(  118) = (  -0.4000000   0.0000000   0.7128867), wk =   0.0063492
        k(  119) = (  -0.4000000   0.0000000   0.9505157), wk =   0.0063492
        k(  120) = (  -0.4000000   0.2430397   0.0000000), wk =   0.0063492
        k(  121) = (  -0.4000000  -0.2430397   0.2376289), wk =   0.0063492
        k(  122) = (  -0.4000000   0.2430397  -0.2376289), wk =   0.0063492
        k(  123) = (   0.4000000  -0.2430397  -0.2376289), wk =   0.0063492
        k(  124) = (  -0.4000000  -0.2430397   0.4752578), wk =   0.0063492
        k(  125) = (  -0.4000000   0.2430397  -0.4752578), wk =   0.0063492
        k(  126) = (   0.4000000  -0.2430397  -0.4752578), wk =   0.0063492
        k(  127) = (  -0.4000000  -0.2430397   0.7128867), wk =   0.0063492
        k(  128) = (  -0.4000000   0.2430397  -0.7128867), wk =   0.0063492
        k(  129) = (   0.4000000  -0.2430397  -0.7128867), wk =   0.0063492
        k(  130) = (  -0.4000000  -0.2430397   0.9505157), wk =   0.0063492
        k(  131) = (  -0.4000000   0.2430397  -0.9505157), wk =   0.0063492
        k(  132) = (   0.4000000  -0.2430397  -0.9505157), wk =   0.0063492
        k(  133) = (  -0.4000000   0.4860795   0.0000000), wk =   0.0063492
        k(  134) = (  -0.4000000  -0.4860795   0.2376289), wk =   0.0063492
        k(  135) = (  -0.4000000   0.4860795  -0.2376289), wk =   0.0063492
        k(  136) = (   0.4000000  -0.4860795  -0.2376289), wk =   0.0063492
        k(  137) = (  -0.4000000  -0.4860795   0.4752578), wk =   0.0063492
        k(  138) = (  -0.4000000   0.4860795  -0.4752578), wk =   0.0063492
        k(  139) = (   0.4000000  -0.4860795  -0.4752578), wk =   0.0063492
        k(  140) = (  -0.4000000  -0.4860795   0.7128867), wk =   0.0063492
        k(  141) = (  -0.4000000   0.4860795  -0.7128867), wk =   0.0063492
        k(  142) = (   0.4000000  -0.4860795  -0.7128867), wk =   0.0063492
        k(  143) = (  -0.4000000  -0.4860795   0.9505157), wk =   0.0063492
        k(  144) = (  -0.4000000   0.4860795  -0.9505157), wk =   0.0063492
        k(  145) = (   0.4000000  -0.4860795  -0.9505157), wk =   0.0063492
        k(  146) = (  -0.4000000   0.7291192   0.0000000), wk =   0.0063492
        k(  147) = (  -0.4000000  -0.7291192   0.2376289), wk =   0.0063492
        k(  148) = (  -0.4000000   0.7291192  -0.2376289), wk =   0.0063492
        k(  149) = (   0.4000000  -0.7291192  -0.2376289), wk =   0.0063492
        k(  150) = (  -0.4000000  -0.7291192   0.4752578), wk =   0.0063492
        k(  151) = (  -0.4000000   0.7291192  -0.4752578), wk =   0.0063492
        k(  152) = (   0.4000000  -0.7291192  -0.4752578), wk =   0.0063492
        k(  153) = (  -0.4000000  -0.7291192   0.7128867), wk =   0.0063492
        k(  154) = (  -0.4000000   0.7291192  -0.7128867), wk =   0.0063492
        k(  155) = (   0.4000000  -0.7291192  -0.7128867), wk =   0.0063492
        k(  156) = (  -0.4000000  -0.7291192   0.9505157), wk =   0.0063492
        k(  157) = (  -0.4000000   0.7291192  -0.9505157), wk =   0.0063492
        k(  158) = (   0.4000000  -0.7291192  -0.9505157), wk =   0.0063492

                       cryst. coord.
        k(    1) = (   0.0000000   0.0000000   0.0000000), wk =   0.0031746
        k(    2) = (   0.0000000   0.0000000   0.1111111), wk =   0.0063492
        k(    3) = (   0.0000000   0.0000000   0.2222222), wk =   0.0063492
        k(    4) = (   0.0000000   0.0000000   0.3333333), wk =   0.0063492
        k(    5) = (   0.0000000   0.0000000   0.4444444), wk =   0.0063492
        k(    6) = (   0.0000000   0.1428571   0.0000000), wk =   0.0063492
        k(    7) = (   0.0000000   0.1428571   0.1111111), wk =   0.0063492
        k(    8) = (   0.0000000   0.1428571   0.2222222), wk =   0.0063492
        k(    9) = (   0.0000000   0.1428571   0.3333333), wk =   0.0063492
        k(   10) = (   0.0000000   0.1428571   0.4444444), wk =   0.0063492
        k(   11) = (   0.0000000   0.2857143   0.0000000), wk =   0.0063492
        k(   12) = (   0.0000000   0.2857143   0.1111111), wk =   0.0063492
        k(   13) = (   0.0000000   0.2857143   0.2222222), wk =   0.0063492
        k(   14) = (   0.0000000   0.2857143   0.3333333), wk =   0.0063492
        k(   15) = (   0.0000000   0.2857143   0.4444444), wk =   0.0063492
        k(   16) = (   0.0000000   0.4285714   0.0000000), wk =   0.0063492
        k(   17) = (   0.0000000   0.4285714   0.1111111), wk =   0.0063492
        k(   18) = (   0.0000000   0.4285714   0.2222222), wk =   0.0063492
        k(   19) = (   0.0000000   0.4285714   0.3333333), wk =   0.0063492
        k(   20) = (   0.0000000   0.4285714   0.4444444), wk =   0.0063492
        k(   21) = (   0.2000000   0.0000000   0.0000000), wk =   0.0063492
        k(   22) = (   0.2000000   0.0000000   0.1111111), wk =   0.0063492
        k(   23) = (   0.2000000   0.0000000   0.2222222), wk =   0.0063492
        k(   24) = (   0.2000000   0.0000000   0.3333333), wk =   0.0063492
        k(   25) = (   0.2000000   0.0000000   0.4444444), wk =   0.0063492
        k(   26) = (   0.2000000   0.1428571   0.0000000), wk =   0.0063492
        k(   27) = (   0.2000000   0.1428571   0.1111111), wk =   0.0063492
        k(   28) = (   0.2000000   0.1428571   0.2222222), wk =   0.0063492
        k(   29) = (   0.2000000   0.1428571   0.3333333), wk =   0.0063492
        k(   30) = (   0.2000000   0.1428571   0.4444444), wk =   0.0063492
        k(   31) = (   0.2000000   0.2857143   0.0000000), wk =   0.0063492
        k(   32) = (   0.2000000   0.2857143   0.1111111), wk =   0.0063492
        k(   33) = (   0.2000000   0.2857143   0.2222222), wk =   0.0063492
        k(   34) = (   0.2000000   0.2857143   0.3333333), wk =   0.0063492
        k(   35) = (   0.2000000   0.2857143   0.4444444), wk =   0.0063492
        k(   36) = (   0.2000000   0.4285714   0.0000000), wk =   0.0063492
        k(   37) = (   0.2000000   0.4285714   0.1111111), wk =   0.0063492
        k(   38) = (   0.2000000   0.4285714   0.2222222), wk =   0.0063492
        k(   39) = (   0.2000000   0.4285714   0.3333333), wk =   0.0063492
        k(   40) = (   0.2000000   0.4285714   0.4444444), wk =   0.0063492
        k(   41) = (   0.4000000   0.0000000   0.0000000), wk =   0.0063492
        k(   42) = (   0.4000000   0.0000000   0.1111111), wk =   0.0063492
        k(   43) = (   0.4000000   0.0000000   0.2222222), wk =   0.0063492
        k(   44) = (   0.4000000   0.0000000   0.3333333), wk =   0.0063492
        k(   45) = (   0.4000000   0.0000000   0.4444444), wk =   0.0063492
        k(   46) = (   0.4000000   0.1428571   0.0000000), wk =   0.0063492
        k(   47) = (   0.4000000   0.1428571   0.1111111), wk =   0.0063492
        k(   48) = (   0.4000000   0.1428571   0.2222222), wk =   0.0063492
        k(   49) = (   0.4000000   0.1428571   0.3333333), wk =   0.0063492
        k(   50) = (   0.4000000   0.1428571   0.4444444), wk =   0.0063492
        k(   51) = (   0.4000000   0.2857143   0.0000000), wk =   0.0063492
        k(   52) = (   0.4000000   0.2857143   0.1111111), wk =   0.0063492
        k(   53) = (   0.4000000   0.2857143   0.2222222), wk =   0.0063492
        k(   54) = (   0.4000000   0.2857143   0.3333333), wk =   0.0063492
        k(   55) = (   0.4000000   0.2857143   0.4444444), wk =   0.0063492
        k(   56) = (   0.4000000   0.4285714   0.0000000), wk =   0.0063492
        k(   57) = (   0.4000000   0.4285714   0.1111111), wk =   0.0063492
        k(   58) = (   0.4000000   0.4285714   0.2222222), wk =   0.0063492
        k(   59) = (   0.4000000   0.4285714   0.3333333), wk =   0.0063492
        k(   60) = (   0.4000000   0.4285714   0.4444444), wk =   0.0063492
        k(   61) = (   0.0000000  -0.1428571   0.1111111), wk =   0.0063492
        k(   62) = (   0.0000000  -0.1428571   0.2222222), wk =   0.0063492
        k(   63) = (   0.0000000  -0.1428571   0.3333333), wk =   0.0063492
        k(   64) = (   0.0000000  -0.1428571   0.4444444), wk =   0.0063492
        k(   65) = (   0.0000000  -0.2857143   0.1111111), wk =   0.0063492
        k(   66) = (   0.0000000  -0.2857143   0.2222222), wk =   0.0063492
        k(   67) = (   0.0000000  -0.2857143   0.3333333), wk =   0.0063492
        k(   68) = (   0.0000000  -0.2857143   0.4444444), wk =   0.0063492
        k(   69) = (   0.0000000  -0.4285714   0.1111111), wk =   0.0063492
        k(   70) = (   0.0000000  -0.4285714   0.2222222), wk =   0.0063492
        k(   71) = (   0.0000000  -0.4285714   0.3333333), wk =   0.0063492
        k(   72) = (   0.0000000  -0.4285714   0.4444444), wk =   0.0063492
        k(   73) = (  -0.2000000   0.0000000   0.1111111), wk =   0.0063492
        k(   74) = (  -0.2000000   0.0000000   0.2222222), wk =   0.0063492
        k(   75) = (  -0.2000000   0.0000000   0.3333333), wk =   0.0063492
        k(   76) = (  -0.2000000   0.0000000   0.4444444), wk =   0.0063492
        k(   77) = (  -0.2000000   0.1428571   0.0000000), wk =   0.0063492
        k(   78) = (  -0.2000000  -0.1428571   0.1111111), wk =   0.0063492
        k(   79) = (  -0.2000000   0.1428571  -0.1111111), wk =   0.0063492
        k(   80) = (   0.2000000  -0.1428571  -0.1111111), wk =   0.0063492
        k(   81) = (  -0.2000000  -0.1428571   0.2222222), wk =   0.0063492
        k(   82) = (  -0.2000000   0.1428571  -0.2222222), wk =   0.0063492
        k(   83) = (   0.2000000  -0.1428571  -0.2222222), wk =   0.0063492
        k(   84) = (  -0.2000000  -0.1428571   0.3333333), wk =   0.0063492
        k(   85) = (  -0.2000000   0.1428571  -0.3333333), wk =   0.0063492
        k(   86) = (   0.2000000  -0.1428571  -0.3333333), wk =   0.0063492
        k(   87) = (  -0.2000000  -0.1428571   0.4444444), wk =   0.0063492
        k(   88) = (  -0.2000000   0.1428571  -0.4444444), wk =   0.0063492
        k(   89) = (   0.2000000  -0.1428571  -0.4444444), wk =   0.0063492
        k(   90) = (  -0.2000000   0.2857143   0.0000000), wk =   0.0063492
        k(   91) = (  -0.2000000  -0.2857143   0.1111111), wk =   0.0063492
        k(   92) = (  -0.2000000   0.2857143  -0.1111111), wk =   0.0063492
        k(   93) = (   0.2000000  -0.2857143  -0.1111111), wk =   0.0063492
        k(   94) = (  -0.2000000  -0.2857143   0.2222222), wk =   0.0063492
        k(   95) = (  -0.2000000   0.2857143  -0.2222222), wk =   0.0063492
        k(   96) = (   0.2000000  -0.2857143  -0.2222222), wk =   0.0063492
        k(   97) = (  -0.2000000  -0.2857143   0.3333333), wk =   0.0063492
        k(   98) = (  -0.2000000   0.2857143  -0.3333333), wk =   0.0063492
        k(   99) = (   0.2000000  -0.2857143  -0.3333333), wk =   0.0063492
        k(  100) = (  -0.2000000  -0.2857143   0.4444444), wk =   0.0063492
        k(  101) = (  -0.2000000   0.2857143  -0.4444444), wk =   0.0063492
        k(  102) = (   0.2000000  -0.2857143  -0.4444444), wk =   0.0063492
        k(  103) = (  -0.2000000   0.4285714   0.0000000), wk =   0.0063492
        k(  104) = (  -0.2000000  -0.4285714   0.1111111), wk =   0.0063492
        k(  105) = (  -0.2000000   0.4285714  -0.1111111), wk =   0.0063492
        k(  106) = (   0.2000000  -0.4285714  -0.1111111), wk =   0.0063492
        k(  107) = (  -0.2000000  -0.4285714   0.2222222), wk =   0.0063492
        k(  108) = (  -0.2000000   0.4285714  -0.2222222), wk =   0.0063492
        k(  109) = (   0.2000000  -0.4285714  -0.2222222), wk =   0.0063492
        k(  110) = (  -0.2000000  -0.4285714   0.3333333), wk =   0.0063492
        k(  111) = (  -0.2000000   0.4285714  -0.3333333), wk =   0.0063492
        k(  112) = (   0.2000000  -0.4285714  -0.3333333), wk =   0.0063492
        k(  113) = (  -0.2000000  -0.4285714   0.4444444), wk =   0.0063492
        k(  114) = (  -0.2000000   0.4285714  -0.4444444), wk =   0.0063492
        k(  115) = (   0.2000000  -0.4285714  -0.4444444), wk =   0.0063492
        k(  116) = (  -0.4000000   0.0000000   0.1111111), wk =   0.0063492
        k(  117) = (  -0.4000000   0.0000000   0.2222222), wk =   0.0063492
        k(  118) = (  -0.4000000   0.0000000   0.3333333), wk =   0.0063492
        k(  119) = (  -0.4000000   0.0000000   0.4444444), wk =   0.0063492
        k(  120) = (  -0.4000000   0.1428571   0.0000000), wk =   0.0063492
        k(  121) = (  -0.4000000  -0.1428571   0.1111111), wk =   0.0063492
        k(  122) = (  -0.4000000   0.1428571  -0.1111111), wk =   0.0063492
        k(  123) = (   0.4000000  -0.1428571  -0.1111111), wk =   0.0063492
        k(  124) = (  -0.4000000  -0.1428571   0.2222222), wk =   0.0063492
        k(  125) = (  -0.4000000   0.1428571  -0.2222222), wk =   0.0063492
        k(  126) = (   0.4000000  -0.1428571  -0.2222222), wk =   0.0063492
        k(  127) = (  -0.4000000  -0.1428571   0.3333333), wk =   0.0063492
        k(  128) = (  -0.4000000   0.1428571  -0.3333333), wk =   0.0063492
        k(  129) = (   0.4000000  -0.1428571  -0.3333333), wk =   0.0063492
        k(  130) = (  -0.4000000  -0.1428571   0.4444444), wk =   0.0063492
        k(  131) = (  -0.4000000   0.1428571  -0.4444444), wk =   0.0063492
        k(  132) = (   0.4000000  -0.1428571  -0.4444444), wk =   0.0063492
        k(  133) = (  -0.4000000   0.2857143   0.0000000), wk =   0.0063492
        k(  134) = (  -0.4000000  -0.2857143   0.1111111), wk =   0.0063492
        k(  135) = (  -0.4000000   0.2857143  -0.1111111), wk =   0.0063492
        k(  136) = (   0.4000000  -0.2857143  -0.1111111), wk =   0.0063492
        k(  137) = (  -0.4000000  -0.2857143   0.2222222), wk =   0.0063492
        k(  138) = (  -0.4000000   0.2857143  -0.2222222), wk =   0.0063492
        k(  139) = (   0.4000000  -0.2857143  -0.2222222), wk =   0.0063492
        k(  140) = (  -0.4000000  -0.2857143   0.3333333), wk =   0.0063492
        k(  141) = (  -0.4000000   0.2857143  -0.3333333), wk =   0.0063492
        k(  142) = (   0.4000000  -0.2857143  -0.3333333), wk =   0.0063492
        k(  143) = (  -0.4000000  -0.2857143   0.4444444), wk =   0.0063492
        k(  144) = (  -0.4000000   0.2857143  -0.4444444), wk =   0.0063492
        k(  145) = (   0.4000000  -0.2857143  -0.4444444), wk =   0.0063492
        k(  146) = (  -0.4000000   0.4285714   0.0000000), wk =   0.0063492
        k(  147) = (  -0.4000000  -0.4285714   0.1111111), wk =   0.0063492
        k(  148) = (  -0.4000000   0.4285714  -0.1111111), wk =   0.0063492
        k(  149) = (   0.4000000  -0.4285714  -0.1111111), wk =   0.0063492
        k(  150) = (  -0.4000000  -0.4285714   0.2222222), wk =   0.0063492
        k(  151) = (  -0.4000000   0.4285714  -0.2222222), wk =   0.0063492
        k(  152) = (   0.4000000  -0.4285714  -0.2222222), wk =   0.0063492
        k(  153) = (  -0.4000000  -0.4285714   0.3333333), wk =   0.0063492
        k(  154) = (  -0.4000000   0.4285714  -0.3333333), wk =   0.0063492
        k(  155) = (   0.4000000  -0.4285714  -0.3333333), wk =   0.0063492
        k(  156) = (  -0.4000000  -0.4285714   0.4444444), wk =   0.0063492
        k(  157) = (  -0.4000000   0.4285714  -0.4444444), wk =   0.0063492
        k(  158) = (   0.4000000  -0.4285714  -0.4444444), wk =   0.0063492

     Dense  grid:  1316619 G-vectors     FFT dimensions: ( 216, 125, 100)

     Smooth grid:   296831 G-vectors     FFT dimensions: ( 128,  75,  60)

     Dynamical RAM for                 wfc:       5.38 MB

     Dynamical RAM for     wfc (w. buffer):    1703.89 MB

     Dynamical RAM for           str. fact:       6.70 MB

     Dynamical RAM for           local pot:       0.00 MB

     Dynamical RAM for          nlocal pot:      13.20 MB

     Dynamical RAM for                qrad:      10.54 MB

     Dynamical RAM for          rho,v,vnew:      21.17 MB

     Dynamical RAM for               rhoin:       7.06 MB

     Dynamical RAM for            rho*nmix:      53.57 MB

     Dynamical RAM for           G-vectors:       6.47 MB

     Dynamical RAM for          h,s,v(r/c):       2.38 MB

     Dynamical RAM for          <psi|beta>:       0.49 MB

     Dynamical RAM for                 psi:      10.75 MB

     Dynamical RAM for                hpsi:      10.75 MB

     Dynamical RAM for                spsi:      10.75 MB

     Dynamical RAM for      wfcinit/wfcrot:      13.35 MB

     Dynamical RAM for           addusdens:     339.86 MB

     Dynamical RAM for          addusforce:     390.21 MB

     Dynamical RAM for         addusstress:     339.02 MB

     Estimated static dynamical RAM per process >       1.80 GB

     Estimated max dynamical RAM per process >       2.18 GB

     Estimated total dynamical RAM >      26.16 GB

     Check: negative core charge=   -0.000003
     Generating pointlists ...
     new r_m :   0.0758 (alat units)  1.5161 (a.u.) for type    1
     new r_m :   0.0891 (alat units)  1.7811 (a.u.) for type    2
     new r_m :   0.0599 (alat units)  1.1970 (a.u.) for type    3
     new r_m :   0.0599 (alat units)  1.1970 (a.u.) for type    4

     Initial potential from superposition of free atoms

     starting charge  188.99132, renormalised to  189.00000
     Starting wfcs are  137 randomized atomic wfcs
     Checking if some PAW data can be deallocated... 
       PAW data deallocated on   10 nodes for type:  1
       PAW data deallocated on    4 nodes for type:  3

     total cpu time spent up to now is     2508.5 secs

     Self-consistent Calculation

     iteration #  1     ecut=   100.00 Ry     beta= 0.40
     Davidson diagonalization with overlap
     ethr =  1.00E-02,  avg # of iterations =  3.0

     negative rho (up, down):  0.000E+00 7.199E-05

     total cpu time spent up to now is     9595.5 secs

     total energy              =   -2123.92908321 Ry
     estimated scf accuracy    <       6.93447886 Ry

     total magnetization       =    19.00 Bohr mag/cell
     absolute magnetization    =    19.00 Bohr mag/cell

     iteration #  2     ecut=   100.00 Ry     beta= 0.40
     Davidson diagonalization with overlap
     ethr =  3.67E-03,  avg # of iterations =  2.0

     negative rho (up, down):  0.000E+00 7.410E-06

     total cpu time spent up to now is    16376.1 secs

     total energy              =   -2121.28019764 Ry
     estimated scf accuracy    <      32.45064991 Ry

     total magnetization       =     8.48 Bohr mag/cell
     absolute magnetization    =     9.90 Bohr mag/cell

     iteration #  3     ecut=   100.00 Ry     beta= 0.40
     Davidson diagonalization with overlap
     ethr =  3.67E-03,  avg # of iterations =  2.5

     negative rho (up, down):  0.000E+00 7.006E-06

     total cpu time spent up to now is    22073.3 secs

     total energy              =   -2123.36894160 Ry
     estimated scf accuracy    <      66.13612050 Ry

     total magnetization       =     3.00 Bohr mag/cell
     absolute magnetization    =     5.92 Bohr mag/cell

     iteration #  4     ecut=   100.00 Ry     beta= 0.40
     Davidson diagonalization with overlap
     ethr =  3.67E-03,  avg # of iterations =  1.5

     negative rho (up, down):  0.000E+00 3.232E-06

     total cpu time spent up to now is    27393.8 secs

     total energy              =   -2124.59133810 Ry
     estimated scf accuracy    <      28.78506644 Ry

     total magnetization       =     9.13 Bohr mag/cell
     absolute magnetization    =     9.50 Bohr mag/cell

     iteration #  5     ecut=   100.00 Ry     beta= 0.40
     Davidson diagonalization with overlap
     ethr =  3.67E-03,  avg # of iterations =  1.7

     negative rho (up, down):  0.000E+00 3.598E-05

     total cpu time spent up to now is    32822.1 secs

     total energy              =   -2125.80693454 Ry
     estimated scf accuracy    <       5.55989099 Ry

     total magnetization       =    16.49 Bohr mag/cell
     absolute magnetization    =    16.58 Bohr mag/cell

     iteration #  6     ecut=   100.00 Ry     beta= 0.40
     Davidson diagonalization with overlap
     ethr =  2.94E-03,  avg # of iterations =  1.5

     negative rho (up, down):  0.000E+00 1.596E-04

     total cpu time spent up to now is    38148.2 secs

     total energy              =   -2126.07648250 Ry
     estimated scf accuracy    <       1.19899019 Ry

     total magnetization       =    18.80 Bohr mag/cell
     absolute magnetization    =    18.81 Bohr mag/cell

     iteration #  7     ecut=   100.00 Ry     beta= 0.40
     Davidson diagonalization with overlap
     ethr =  6.34E-04,  avg # of iterations =  1.5

     negative rho (up, down):  0.000E+00 2.365E-04

     total cpu time spent up to now is    43484.2 secs

     total energy              =   -2126.06867902 Ry
     estimated scf accuracy    <       0.54657636 Ry

     total magnetization       =    19.00 Bohr mag/cell
     absolute magnetization    =    19.00 Bohr mag/cell

     iteration #  8     ecut=   100.00 Ry     beta= 0.40
     Davidson diagonalization with overlap
     ethr =  2.89E-04,  avg # of iterations =  1.8

     negative rho (up, down):  0.000E+00 7.197E-04

     total cpu time spent up to now is    48857.4 secs

     total energy              =   -2126.07122351 Ry
     estimated scf accuracy    <       0.51130273 Ry

     total magnetization       =    19.00 Bohr mag/cell
     absolute magnetization    =    19.01 Bohr mag/cell

     iteration #  9     ecut=   100.00 Ry     beta= 0.40
     Davidson diagonalization with overlap
     ethr =  2.71E-04,  avg # of iterations =  1.9

     negative rho (up, down):  0.000E+00 7.614E-04

     total cpu time spent up to now is    54250.2 secs

     total energy              =   -2126.09932144 Ry
     estimated scf accuracy    <       0.17007313 Ry

     total magnetization       =    19.00 Bohr mag/cell
     absolute magnetization    =    19.02 Bohr mag/cell

     iteration # 10     ecut=   100.00 Ry     beta= 0.40
     Davidson diagonalization with overlap
     c_bands:  1 eigenvalues not converged
     c_bands:  1 eigenvalues not converged
     c_bands:  1 eigenvalues not converged
     c_bands:  1 eigenvalues not converged
     c_bands:  1 eigenvalues not converged
     c_bands:  1 eigenvalues not converged
     c_bands:  1 eigenvalues not converged
     c_bands:  1 eigenvalues not converged
     c_bands:  1 eigenvalues not converged
     ethr =  9.00E-05,  avg # of iterations = 11.5

     negative rho (up, down):  0.000E+00 9.121E-04

     total cpu time spent up to now is    61055.0 secs

     total energy              =   -2126.09929065 Ry
     estimated scf accuracy    <       0.11631602 Ry

     total magnetization       =    19.00 Bohr mag/cell
     absolute magnetization    =    19.02 Bohr mag/cell

     iteration # 11     ecut=   100.00 Ry     beta= 0.40
     Davidson diagonalization with overlap
     c_bands:  1 eigenvalues not converged
     c_bands:  1 eigenvalues not converged
     ethr =  6.15E-05,  avg # of iterations =  3.5

     negative rho (up, down):  0.000E+00 9.006E-04

     total cpu time spent up to now is    66698.9 secs

     total energy              =   -2126.10267921 Ry
     estimated scf accuracy    <       0.36467254 Ry

     total magnetization       =    19.00 Bohr mag/cell
     absolute magnetization    =    19.03 Bohr mag/cell

     iteration # 12     ecut=   100.00 Ry     beta= 0.40
     Davidson diagonalization with overlap
     ethr =  6.15E-05,  avg # of iterations =  1.0

     negative rho (up, down):  0.000E+00 9.196E-04

     total cpu time spent up to now is    71893.4 secs

     total energy              =   -2126.10425456 Ry
     estimated scf accuracy    <       0.04507064 Ry

     total magnetization       =    19.00 Bohr mag/cell
     absolute magnetization    =    19.03 Bohr mag/cell

     iteration # 13     ecut=   100.00 Ry     beta= 0.40
     Davidson diagonalization with overlap
     c_bands:  1 eigenvalues not converged
     c_bands:  1 eigenvalues not converged
     c_bands:  1 eigenvalues not converged
     c_bands:  1 eigenvalues not converged
     c_bands:  2 eigenvalues not converged
     c_bands:  3 eigenvalues not converged
     c_bands:  2 eigenvalues not converged
     c_bands:  1 eigenvalues not converged
     c_bands:  1 eigenvalues not converged
     c_bands:  1 eigenvalues not converged
     ethr =  2.38E-05,  avg # of iterations =  5.6

     negative rho (up, down):  0.000E+00 9.739E-04

     total cpu time spent up to now is    77718.8 secs

     total energy              =   -2126.10587543 Ry
     estimated scf accuracy    <       0.03975092 Ry

     total magnetization       =    19.00 Bohr mag/cell
     absolute magnetization    =    19.03 Bohr mag/cell

     iteration # 14     ecut=   100.00 Ry     beta= 0.40
     Davidson diagonalization with overlap
     ethr =  2.10E-05,  avg # of iterations =  1.2

     negative rho (up, down):  0.000E+00 9.872E-04

     total cpu time spent up to now is    82914.1 secs

     total energy              =   -2126.10641186 Ry
     estimated scf accuracy    <       0.01777359 Ry

     total magnetization       =    19.00 Bohr mag/cell
     absolute magnetization    =    19.04 Bohr mag/cell

     iteration # 15     ecut=   100.00 Ry     beta= 0.40
     Davidson diagonalization with overlap
     c_bands:  1 eigenvalues not converged
     c_bands:  1 eigenvalues not converged
     c_bands:  2 eigenvalues not converged
     c_bands:  1 eigenvalues not converged
     c_bands:  2 eigenvalues not converged
     c_bands:  1 eigenvalues not converged
     c_bands:  1 eigenvalues not converged
     c_bands:  1 eigenvalues not converged
     c_bands:  1 eigenvalues not converged
     c_bands:  1 eigenvalues not converged
     c_bands:  1 eigenvalues not converged
     c_bands:  1 eigenvalues not converged
     c_bands:  1 eigenvalues not converged
     c_bands:  1 eigenvalues not converged
     ethr =  9.40E-06,  avg # of iterations =  8.0

     negative rho (up, down):  0.000E+00 9.867E-04

     total cpu time spent up to now is    89170.9 secs

     total energy              =   -2126.10681796 Ry
     estimated scf accuracy    <       0.00230872 Ry

     total magnetization       =    19.00 Bohr mag/cell
     absolute magnetization    =    19.04 Bohr mag/cell

     iteration # 16     ecut=   100.00 Ry     beta= 0.40
     Davidson diagonalization with overlap
     c_bands:  1 eigenvalues not converged
     c_bands:  1 eigenvalues not converged
     c_bands:  1 eigenvalues not converged
     c_bands:  1 eigenvalues not converged
     c_bands:  1 eigenvalues not converged
     c_bands:  1 eigenvalues not converged
     c_bands:  1 eigenvalues not converged
     c_bands:  1 eigenvalues not converged
     c_bands:  1 eigenvalues not converged
     c_bands:  1 eigenvalues not converged
     c_bands:  1 eigenvalues not converged
     c_bands:  1 eigenvalues not converged
     c_bands:  1 eigenvalues not converged
     ethr =  1.22E-06,  avg # of iterations = 11.0

     negative rho (up, down):  0.000E+00 9.750E-04

     total cpu time spent up to now is    96819.0 secs

     total energy              =   -2126.10716708 Ry
     estimated scf accuracy    <       0.00082936 Ry

     total magnetization       =    19.00 Bohr mag/cell
     absolute magnetization    =    19.04 Bohr mag/cell

     iteration # 17     ecut=   100.00 Ry     beta= 0.40
     Davidson diagonalization with overlap
     ethr =  4.39E-07,  avg # of iterations =  1.8

     negative rho (up, down):  0.000E+00 9.630E-04

     total cpu time spent up to now is   102339.2 secs

     total energy              =   -2126.10721168 Ry
     estimated scf accuracy    <       0.00182800 Ry

     total magnetization       =    19.00 Bohr mag/cell
     absolute magnetization    =    19.04 Bohr mag/cell

     iteration # 18     ecut=   100.00 Ry     beta= 0.40
     Davidson diagonalization with overlap
     ethr =  4.39E-07,  avg # of iterations =  1.0

     negative rho (up, down):  0.000E+00 9.554E-04

     total cpu time spent up to now is   107547.0 secs

     total energy              =   -2126.10723496 Ry
     estimated scf accuracy    <       0.00039502 Ry

     total magnetization       =    19.00 Bohr mag/cell
     absolute magnetization    =    19.04 Bohr mag/cell

     iteration # 19     ecut=   100.00 Ry     beta= 0.40
     Davidson diagonalization with overlap
     ethr =  2.09E-07,  avg # of iterations =  1.1

     negative rho (up, down):  0.000E+00 9.515E-04

     total cpu time spent up to now is   112782.4 secs

     total energy              =   -2126.10725694 Ry
     estimated scf accuracy    <       0.00002986 Ry

     total magnetization       =    19.00 Bohr mag/cell
     absolute magnetization    =    19.04 Bohr mag/cell

     iteration # 20     ecut=   100.00 Ry     beta= 0.40
     Davidson diagonalization with overlap
     ethr =  1.58E-08,  avg # of iterations =  4.4

     negative rho (up, down):  0.000E+00 9.498E-04

     total cpu time spent up to now is   121819.1 secs

     total energy              =   -2126.10727604 Ry
     estimated scf accuracy    <       0.00003609 Ry

     total magnetization       =    19.00 Bohr mag/cell
     absolute magnetization    =    19.05 Bohr mag/cell

     iteration # 21     ecut=   100.00 Ry     beta= 0.40
     Davidson diagonalization with overlap
     ethr =  1.58E-08,  avg # of iterations =  2.0

     negative rho (up, down):  0.000E+00 9.530E-04

     total cpu time spent up to now is   127355.4 secs

     total energy              =   -2126.10728143 Ry
     estimated scf accuracy    <       0.00002591 Ry

     total magnetization       =    19.00 Bohr mag/cell
     absolute magnetization    =    19.05 Bohr mag/cell

     iteration # 22     ecut=   100.00 Ry     beta= 0.40
     Davidson diagonalization with overlap
     ethr =  1.37E-08,  avg # of iterations =  1.0

     negative rho (up, down):  0.000E+00 9.557E-04

     total cpu time spent up to now is   132566.0 secs

     total energy              =   -2126.10728236 Ry
     estimated scf accuracy    <       0.00001423 Ry

     total magnetization       =    19.00 Bohr mag/cell
     absolute magnetization    =    19.05 Bohr mag/cell

     iteration # 23     ecut=   100.00 Ry     beta= 0.40
     Davidson diagonalization with overlap
     ethr =  7.53E-09,  avg # of iterations =  1.0

     negative rho (up, down):  0.000E+00 9.567E-04

     total cpu time spent up to now is   137766.3 secs

     total energy              =   -2126.10728363 Ry
     estimated scf accuracy    <       0.00000064 Ry

     total magnetization       =    19.00 Bohr mag/cell
     absolute magnetization    =    19.05 Bohr mag/cell

     iteration # 24     ecut=   100.00 Ry     beta= 0.40
     Davidson diagonalization with overlap
     ethr =  3.40E-10,  avg # of iterations =  3.0

     negative rho (up, down):  0.000E+00 9.569E-04

     total cpu time spent up to now is   144011.6 secs

     total energy              =   -2126.10728404 Ry
     estimated scf accuracy    <       0.00000203 Ry

     total magnetization       =    19.00 Bohr mag/cell
     absolute magnetization    =    19.05 Bohr mag/cell

     iteration # 25     ecut=   100.00 Ry     beta= 0.40
     Davidson diagonalization with overlap
     ethr =  3.40E-10,  avg # of iterations =  2.0

     negative rho (up, down):  0.000E+00 9.569E-04

     total cpu time spent up to now is   149477.8 secs

     total energy              =   -2126.10728422 Ry
     estimated scf accuracy    <       0.00000043 Ry

     total magnetization       =    19.00 Bohr mag/cell
     absolute magnetization    =    19.05 Bohr mag/cell

     iteration # 26     ecut=   100.00 Ry     beta= 0.40
     Davidson diagonalization with overlap
     ethr =  2.27E-10,  avg # of iterations =  2.0

     negative rho (up, down):  0.000E+00 9.562E-04

     total cpu time spent up to now is   155041.4 secs

     total energy              =   -2126.10728440 Ry
     estimated scf accuracy    <       0.00000093 Ry

     total magnetization       =    19.00 Bohr mag/cell
     absolute magnetization    =    19.05 Bohr mag/cell

     iteration # 27     ecut=   100.00 Ry     beta= 0.40
     Davidson diagonalization with overlap
     ethr =  2.27E-10,  avg # of iterations =  2.0

     negative rho (up, down):  0.000E+00 9.558E-04

     total cpu time spent up to now is   160485.9 secs

     total energy              =   -2126.10728454 Ry
     estimated scf accuracy    <       0.00000020 Ry

     total magnetization       =    19.00 Bohr mag/cell
     absolute magnetization    =    19.05 Bohr mag/cell

     iteration # 28     ecut=   100.00 Ry     beta= 0.40
     Davidson diagonalization with overlap
     ethr =  1.03E-10,  avg # of iterations =  2.0

     negative rho (up, down):  0.000E+00 9.561E-04

     total cpu time spent up to now is   165976.4 secs

     total energy              =   -2126.10728457 Ry
     estimated scf accuracy    <       0.00000066 Ry

     total magnetization       =    19.00 Bohr mag/cell
     absolute magnetization    =    19.05 Bohr mag/cell

     iteration # 29     ecut=   100.00 Ry     beta= 0.40
     Davidson diagonalization with overlap
     ethr =  1.03E-10,  avg # of iterations =  2.0

     negative rho (up, down):  0.000E+00 9.560E-04

     total cpu time spent up to now is   171401.0 secs

     total energy              =   -2126.10728462 Ry
     estimated scf accuracy    <       0.00000035 Ry

     total magnetization       =    19.00 Bohr mag/cell
     absolute magnetization    =    19.05 Bohr mag/cell

     iteration # 30     ecut=   100.00 Ry     beta= 0.40
     Davidson diagonalization with overlap
     ethr =  1.03E-10,  avg # of iterations =  2.0

     negative rho (up, down):  0.000E+00 9.561E-04

     total cpu time spent up to now is   176892.4 secs

     total energy              =   -2126.10728465 Ry
     estimated scf accuracy    <       0.00000003 Ry

     total magnetization       =    19.00 Bohr mag/cell
     absolute magnetization    =    19.05 Bohr mag/cell

     iteration # 31     ecut=   100.00 Ry     beta= 0.40
     Davidson diagonalization with overlap
     ethr =  1.60E-11,  avg # of iterations =  2.1

     negative rho (up, down):  0.000E+00 9.562E-04

     total cpu time spent up to now is   182720.4 secs

     total energy              =   -2126.10728466 Ry
     estimated scf accuracy    <       0.00000003 Ry

     total magnetization       =    19.00 Bohr mag/cell
     absolute magnetization    =    19.05 Bohr mag/cell

     iteration # 32     ecut=   100.00 Ry     beta= 0.40
     Davidson diagonalization with overlap
     ethr =  1.37E-11,  avg # of iterations =  1.0

     negative rho (up, down):  0.000E+00 9.563E-04

     total cpu time spent up to now is   187907.4 secs

     total energy              =   -2126.10728466 Ry
     estimated scf accuracy    <          5.1E-09 Ry

     total magnetization       =    19.00 Bohr mag/cell
     absolute magnetization    =    19.05 Bohr mag/cell

     iteration # 33     ecut=   100.00 Ry     beta= 0.40
     Davidson diagonalization with overlap
     ethr =  2.68E-12,  avg # of iterations =  4.6

     negative rho (up, down):  0.000E+00 9.563E-04

     total cpu time spent up to now is   195310.3 secs

     total energy              =   -2126.10728467 Ry
     estimated scf accuracy    <          3.2E-09 Ry

     total magnetization       =    19.00 Bohr mag/cell
     absolute magnetization    =    19.05 Bohr mag/cell

     iteration # 34     ecut=   100.00 Ry     beta= 0.40
     Davidson diagonalization with overlap
     ethr =  1.68E-12,  avg # of iterations =  1.2

     negative rho (up, down):  0.000E+00 9.563E-04

     total cpu time spent up to now is   200490.7 secs

     total energy              =   -2126.10728467 Ry
     estimated scf accuracy    <          1.2E-09 Ry

     total magnetization       =    19.00 Bohr mag/cell
     absolute magnetization    =    19.05 Bohr mag/cell

     iteration # 35     ecut=   100.00 Ry     beta= 0.40
     Davidson diagonalization with overlap
     ethr =  6.32E-13,  avg # of iterations =  2.2

     negative rho (up, down):  0.000E+00 9.563E-04

     total cpu time spent up to now is   205949.6 secs

     total energy              =   -2126.10728467 Ry
     estimated scf accuracy    <          9.7E-10 Ry

     total magnetization       =    19.00 Bohr mag/cell
     absolute magnetization    =    19.05 Bohr mag/cell

     iteration # 36     ecut=   100.00 Ry     beta= 0.40
     Davidson diagonalization with overlap
     ethr =  5.11E-13,  avg # of iterations =  1.1

     negative rho (up, down):  0.000E+00 9.563E-04

     total cpu time spent up to now is   211176.6 secs

     total energy              =   -2126.10728467 Ry
     estimated scf accuracy    <          4.9E-10 Ry

     total magnetization       =    19.00 Bohr mag/cell
     absolute magnetization    =    19.05 Bohr mag/cell

     iteration # 37     ecut=   100.00 Ry     beta= 0.40
     Davidson diagonalization with overlap
     ethr =  2.57E-13,  avg # of iterations =  1.3

     negative rho (up, down):  0.000E+00 9.563E-04

     Magnetic moment per site:
     atom:    1    charge:    7.9388    magn:    0.0015    constr:    0.0000
     atom:    2    charge:   12.9187    magn:    3.6796    constr:    0.0000
     atom:    3    charge:   12.9344    magn:    3.6314    constr:    0.0000
     atom:    4    charge:   12.9172    magn:    3.6868    constr:    0.0000
     atom:    5    charge:   12.9522    magn:    3.5863    constr:    0.0000
     atom:    6    charge:    0.8422    magn:    0.0105    constr:    0.0000
     atom:    7    charge:    0.8315    magn:    0.0118    constr:    0.0000
     atom:    8    charge:    0.8385    magn:    0.0108    constr:    0.0000
     atom:    9    charge:    0.8329    magn:    0.0125    constr:    0.0000
     atom:   10    charge:    4.2689    magn:    0.0986    constr:    0.0000
     atom:   11    charge:    4.2558    magn:    0.1160    constr:    0.0000
     atom:   12    charge:    4.2534    magn:    0.1187    constr:    0.0000
     atom:   13    charge:    4.2564    magn:    0.1103    constr:    0.0000
     atom:   14    charge:    4.2336    magn:    0.1264    constr:    0.0000
     atom:   15    charge:    4.2313    magn:    0.1015    constr:    0.0000
     atom:   16    charge:    4.2298    magn:    0.1233    constr:    0.0000
     atom:   17    charge:    4.2330    magn:    0.0933    constr:    0.0000
     atom:   18    charge:    4.2347    magn:    0.1285    constr:    0.0000
     atom:   19    charge:    4.2352    magn:    0.1498    constr:    0.0000
     atom:   20    charge:    4.2447    magn:    0.1102    constr:    0.0000
     atom:   21    charge:    4.2362    magn:    0.1499    constr:    0.0000
     atom:   22    charge:    4.2420    magn:    0.1301    constr:    0.0000
     atom:   23    charge:    4.2369    magn:    0.1439    constr:    0.0000
     atom:   24    charge:    4.2480    magn:    0.1180    constr:    0.0000
     atom:   25    charge:    4.2287    magn:    0.1499    constr:    0.0000

     total cpu time spent up to now is   216433.7 secs

     End of self-consistent calculation

 ------ SPIN UP ------------


          k = 0.0000 0.0000 0.0000 ( 37059 PWs)   bands (ev):

   -85.5651 -85.5538 -85.2493 -85.0880 -51.6334 -51.5991 -51.5293 -51.5265
   -51.5006 -51.4948 -51.4398 -51.3559 -51.2153 -51.0817 -51.0487 -50.8730
   -44.7170 -16.8265 -16.7167 -16.6807 -16.3462 -16.1517 -16.0693 -15.8299
   -13.9960 -13.8611 -13.8005 -13.7149 -13.6988 -13.6727 -13.6100 -13.5986
   -13.5214 -13.4901 -13.4696 -13.4364  -4.3970  -4.0021  -3.7760  -3.5292
    -2.4177  -2.2897  -2.0450  -1.8982  -1.7791  -1.5473  -1.4875  -1.3602
    -1.2215  -1.1798  -1.1188  -1.0457  -0.3714  -0.3162   0.0607   0.1657
     0.2069   0.2555   0.2573   0.4059   0.4406   0.5847   0.6164   0.7211
     1.0473   1.1025   1.2165   1.3024   1.3582   1.4925   1.6413   1.6455
     1.7798   1.8248   1.8838   1.9779   2.1272   2.1995   2.2071   2.3970
     2.4325   2.4966   2.5403   2.6131   2.7787   2.8060   2.9068   3.0609
     3.1489   3.1745   3.2194   3.2930   3.4327   3.4546   3.5471   3.5851
     3.7968   3.8809   3.9462   3.9707   4.1355   4.2641   4.6146   4.7350
     8.7646  10.7189  11.1541  11.5975  11.8461  12.7775  12.8822  12.8913
    13.0495  13.1515

     occupation numbers 
     1.0000   1.0000   1.0000   1.0000   1.0000   1.0000   1.0000   1.0000
     1.0000   1.0000   1.0000   1.0000   1.0000   1.0000   1.0000   1.0000
     1.0000   1.0000   1.0000   1.0000   1.0000   1.0000   1.0000   1.0000
     1.0000   1.0000   1.0000   1.0000   1.0000   1.0000   1.0000   1.0000
     1.0000   1.0000   1.0000   1.0000   1.0000   1.0000   1.0000   1.0000
     1.0000   1.0000   1.0000   1.0000   1.0000   1.0000   1.0000   1.0000
     1.0000   1.0000   1.0000   1.0000   1.0000   1.0000   1.0000   1.0000
     1.0000   1.0000   1.0000   1.0000   1.0000   1.0000   1.0000   1.0000
     1.0000   1.0000   1.0000   1.0000   1.0000   1.0000   1.0000   1.0000
     1.0000   1.0000   1.0000   1.0000   1.0000   1.0000   1.0000   1.0000
     1.0000   1.0000   1.0000   1.0000   1.0000   1.0000   1.0000   1.0000
     1.0000   1.0000   1.0000   1.0000   1.0000   1.0000   1.0000   1.0000
     1.0000   1.0000   1.0000   1.0000   1.0000   1.0000   1.0000   1.0000
     0.0000   0.0000   0.0000   0.0000   0.0000   0.0000   0.0000   0.0000
     0.0000   0.0000

          k = 0.0000 0.0000 0.2376 ( 37071 PWs)   bands (ev):

   -85.5651 -85.5538 -85.2493 -85.0880 -51.6334 -51.5991 -51.5293 -51.5265
   -51.5006 -51.4948 -51.4398 -51.3559 -51.2153 -51.0817 -51.0487 -50.8730
   -44.7170 -16.8277 -16.7177 -16.6839 -16.3328 -16.1406 -16.0592 -15.8295
   -14.0075 -13.8768 -13.8008 -13.7215 -13.7054 -13.6737 -13.6184 -13.5986
   -13.5266 -13.4954 -13.4670 -13.4327  -4.3695  -3.9944  -3.7665  -3.5233
    -2.3822  -2.2799  -2.0350  -1.8812  -1.7766  -1.5480  -1.4887  -1.3284
    -1.2392  -1.1729  -1.1180  -1.0321  -0.3657  -0.3029   0.0390   0.1699
     0.2086   0.2359   0.2761   0.3974   0.4555   0.5689   0.6025   0.7395
     1.0075   1.1134   1.2167   1.2984   1.3430   1.4809   1.6155   1.6254
     1.7879   1.8166   1.8806   1.9749   2.1094   2.1530   2.2215   2.4053
     2.4353   2.4807   2.5304   2.6423   2.7546   2.7826   2.9134   3.0398
     3.1214   3.1654   3.2285   3.3024   3.4070   3.4833   3.5483   3.6266
     3.7902   3.8571   3.9314   4.0018   4.1285   4.2559   4.6100   4.7248
     8.9077  10.7931  11.2042  11.6148  11.8990  12.6614  12.7757  12.9196
    13.0121  13.1684

     occupation numbers 
     1.0000   1.0000   1.0000   1.0000   1.0000   1.0000   1.0000   1.0000
     1.0000   1.0000   1.0000   1.0000   1.0000   1.0000   1.0000   1.0000
     1.0000   1.0000   1.0000   1.0000   1.0000   1.0000   1.0000   1.0000
     1.0000   1.0000   1.0000   1.0000   1.0000   1.0000   1.0000   1.0000
     1.0000   1.0000   1.0000   1.0000   1.0000   1.0000   1.0000   1.0000
     1.0000   1.0000   1.0000   1.0000   1.0000   1.0000   1.0000   1.0000
     1.0000   1.0000   1.0000   1.0000   1.0000   1.0000   1.0000   1.0000
     1.0000   1.0000   1.0000   1.0000   1.0000   1.0000   1.0000   1.0000
     1.0000   1.0000   1.0000   1.0000   1.0000   1.0000   1.0000   1.0000
     1.0000   1.0000   1.0000   1.0000   1.0000   1.0000   1.0000   1.0000
     1.0000   1.0000   1.0000   1.0000   1.0000   1.0000   1.0000   1.0000
     1.0000   1.0000   1.0000   1.0000   1.0000   1.0000   1.0000   1.0000
     1.0000   1.0000   1.0000   1.0000   1.0000   1.0000   1.0000   1.0000
     0.0000   0.0000   0.0000   0.0000   0.0000   0.0000   0.0000   0.0000
     0.0000   0.0000

          k = 0.0000 0.0000 0.4753 ( 37078 PWs)   bands (ev):

   -85.5651 -85.5538 -85.2493 -85.0880 -51.6334 -51.5991 -51.5293 -51.5265
   -51.5006 -51.4948 -51.4398 -51.3559 -51.2153 -51.0817 -51.0487 -50.8730
   -44.7170 -16.8315 -16.7205 -16.6892 -16.3002 -16.1105 -16.0322 -15.8307
   -14.0371 -13.9160 -13.8007 -13.7609 -13.7044 -13.6759 -13.6380 -13.6012
   -13.5417 -13.4982 -13.4613 -13.4277  -4.2952  -3.9752  -3.7425  -3.5212
    -2.3043  -2.2365  -1.9964  -1.8538  -1.7709  -1.5452  -1.4848  -1.3296
    -1.2195  -1.1475  -1.1002  -0.9929  -0.3479  -0.2718   0.0135   0.1396
     0.2038   0.2438   0.3050   0.3676   0.4856   0.5648   0.5919   0.7679
     0.9566   1.0880   1.1919   1.2887   1.3023   1.4421   1.5554   1.6112
     1.6896   1.8130   1.8584   1.9401   2.0825   2.1522   2.2091   2.3283
     2.4278   2.4830   2.5265   2.6519   2.7092   2.7191   2.9277   2.9975
     3.0817   3.1634   3.2516   3.3204   3.4323   3.5191   3.5768   3.6687
     3.7699   3.8632   3.9054   4.0411   4.1184   4.2371   4.5913   4.6983
     9.2921  10.9917  11.2997  11.6919  12.0417  12.4646  12.6224  12.6795
    12.9412  13.0255

     occupation numbers 
     1.0000   1.0000   1.0000   1.0000   1.0000   1.0000   1.0000   1.0000
     1.0000   1.0000   1.0000   1.0000   1.0000   1.0000   1.0000   1.0000
     1.0000   1.0000   1.0000   1.0000   1.0000   1.0000   1.0000   1.0000
     1.0000   1.0000   1.0000   1.0000   1.0000   1.0000   1.0000   1.0000
     1.0000   1.0000   1.0000   1.0000   1.0000   1.0000   1.0000   1.0000
     1.0000   1.0000   1.0000   1.0000   1.0000   1.0000   1.0000   1.0000
     1.0000   1.0000   1.0000   1.0000   1.0000   1.0000   1.0000   1.0000
     1.0000   1.0000   1.0000   1.0000   1.0000   1.0000   1.0000   1.0000
     1.0000   1.0000   1.0000   1.0000   1.0000   1.0000   1.0000   1.0000
     1.0000   1.0000   1.0000   1.0000   1.0000   1.0000   1.0000   1.0000
     1.0000   1.0000   1.0000   1.0000   1.0000   1.0000   1.0000   1.0000
     1.0000   1.0000   1.0000   1.0000   1.0000   1.0000   1.0000   1.0000
     1.0000   1.0000   1.0000   1.0000   1.0000   1.0000   1.0000   1.0000
     0.0000   0.0000   0.0000   0.0000   0.0000   0.0000   0.0000   0.0000
     0.0000   0.0000

          k = 0.0000 0.0000 0.7129 ( 37102 PWs)   bands (ev):

   -85.5651 -85.5538 -85.2493 -85.0880 -51.6334 -51.5991 -51.5293 -51.5265
   -51.5006 -51.4948 -51.4398 -51.3559 -51.2153 -51.0817 -51.0487 -50.8730
   -44.7170 -16.8373 -16.7233 -16.6921 -16.2649 -16.0723 -15.9975 -15.8381
   -14.0709 -13.9595 -13.8153 -13.7961 -13.7025 -13.6865 -13.6566 -13.6056
   -13.5507 -13.4978 -13.4556 -13.4252  -4.1991  -3.9537  -3.7145  -3.5448
    -2.2713  -2.1229  -1.9344  -1.8345  -1.7633  -1.5422  -1.4773  -1.3895
    -1.1998  -1.1178  -1.0240  -0.9123  -0.3183  -0.2386   0.0102   0.1141
     0.2078   0.2488   0.2753   0.4021   0.5507   0.5750   0.6200   0.7562
     0.9107   1.0251   1.1263   1.2284   1.2780   1.3617   1.4653   1.5461
     1.6251   1.6978   1.8904   1.9536   2.0618   2.1142   2.1980   2.2552
     2.3536   2.4784   2.5366   2.5525   2.6522   2.7577   2.9016   2.9887
     3.0386   3.1510   3.2934   3.3888   3.5134   3.5580   3.6132   3.6797
     3.7468   3.8784   3.9288   4.0788   4.1111   4.2161   4.5593   4.6610
     9.8233  11.2064  11.3435  11.8273  12.0755  12.3307  12.4161  12.5650
    12.7792  12.8789

     occupation numbers 
     1.0000   1.0000   1.0000   1.0000   1.0000   1.0000   1.0000   1.0000
     1.0000   1.0000   1.0000   1.0000   1.0000   1.0000   1.0000   1.0000
     1.0000   1.0000   1.0000   1.0000   1.0000   1.0000   1.0000   1.0000
     1.0000   1.0000   1.0000   1.0000   1.0000   1.0000   1.0000   1.0000
     1.0000   1.0000   1.0000   1.0000   1.0000   1.0000   1.0000   1.0000
     1.0000   1.0000   1.0000   1.0000   1.0000   1.0000   1.0000   1.0000
     1.0000   1.0000   1.0000   1.0000   1.0000   1.0000   1.0000   1.0000
     1.0000   1.0000   1.0000   1.0000   1.0000   1.0000   1.0000   1.0000
     1.0000   1.0000   1.0000   1.0000   1.0000   1.0000   1.0000   1.0000
     1.0000   1.0000   1.0000   1.0000   1.0000   1.0000   1.0000   1.0000
     1.0000   1.0000   1.0000   1.0000   1.0000   1.0000   1.0000   1.0000
     1.0000   1.0000   1.0000   1.0000   1.0000   1.0000   1.0000   1.0000
     1.0000   1.0000   1.0000   1.0000   1.0000   1.0000   1.0000   1.0000
     0.0000   0.0000   0.0000   0.0000   0.0000   0.0000   0.0000   0.0000
     0.0000   0.0000

          k = 0.0000 0.0000 0.9505 ( 37140 PWs)   bands (ev):

   -85.5651 -85.5538 -85.2493 -85.0880 -51.6334 -51.5991 -51.5293 -51.5265
   -51.5006 -51.4948 -51.4398 -51.3559 -51.2153 -51.0817 -51.0487 -50.8730
   -44.7170 -16.8418 -16.7245 -16.6930 -16.2427 -16.0450 -15.9687 -15.8503
   -14.0929 -13.9870 -13.8498 -13.7950 -13.7143 -13.6914 -13.6616 -13.6087
   -13.5523 -13.4974 -13.4527 -13.4243  -4.1253  -3.9399  -3.6926  -3.5822
    -2.2597  -2.0430  -1.8819  -1.8175  -1.7527  -1.5544  -1.4811  -1.4073
    -1.2232  -1.1038  -0.9389  -0.8413  -0.2729  -0.2235   0.0210   0.1176
     0.1526   0.2375   0.3223   0.5042   0.5601   0.6241   0.6736   0.7372
     0.7898   0.9067   1.0479   1.1497   1.2565   1.3381   1.4261   1.4945
     1.5596   1.7250   1.8690   1.9339   1.9978   2.1176   2.1522   2.2647
     2.3241   2.4508   2.4983   2.5276   2.6269   2.7775   2.8790   2.9388
     3.0383   3.1753   3.3206   3.4593   3.5002   3.6165   3.6326   3.7064
     3.7564   3.8689   3.9700   4.0996   4.1291   4.1882   4.5368   4.6236
    10.4050  10.9539  11.5545  11.8118  12.0171  12.2636  12.4489  12.5844
    12.6790  12.7354

     occupation numbers 
     1.0000   1.0000   1.0000   1.0000   1.0000   1.0000   1.0000   1.0000
     1.0000   1.0000   1.0000   1.0000   1.0000   1.0000   1.0000   1.0000
     1.0000   1.0000   1.0000   1.0000   1.0000   1.0000   1.0000   1.0000
     1.0000   1.0000   1.0000   1.0000   1.0000   1.0000   1.0000   1.0000
     1.0000   1.0000   1.0000   1.0000   1.0000   1.0000   1.0000   1.0000
     1.0000   1.0000   1.0000   1.0000   1.0000   1.0000   1.0000   1.0000
     1.0000   1.0000   1.0000   1.0000   1.0000   1.0000   1.0000   1.0000
     1.0000   1.0000   1.0000   1.0000   1.0000   1.0000   1.0000   1.0000
     1.0000   1.0000   1.0000   1.0000   1.0000   1.0000   1.0000   1.0000
     1.0000   1.0000   1.0000   1.0000   1.0000   1.0000   1.0000   1.0000
     1.0000   1.0000   1.0000   1.0000   1.0000   1.0000   1.0000   1.0000
     1.0000   1.0000   1.0000   1.0000   1.0000   1.0000   1.0000   1.0000
     1.0000   1.0000   1.0000   1.0000   1.0000   1.0000   1.0000   1.0000
     0.0000   0.0000   0.0000   0.0000   0.0000   0.0000   0.0000   0.0000
     0.0000   0.0000

          k = 0.0000 0.2430 0.0000 ( 37033 PWs)   bands (ev):

   -85.5651 -85.5538 -85.2493 -85.0880 -51.6334 -51.5991 -51.5293 -51.5265
   -51.5006 -51.4948 -51.4398 -51.3559 -51.2153 -51.0817 -51.0487 -50.8730
   -44.7170 -16.8285 -16.7174 -16.6805 -16.3311 -16.1481 -16.0644 -15.8448
   -13.9991 -13.8655 -13.8088 -13.7395 -13.7131 -13.6626 -13.6093 -13.5967
   -13.5075 -13.4913 -13.4564 -13.4343  -4.3703  -3.9967  -3.7753  -3.5315
    -2.3848  -2.2587  -2.0493  -1.9018  -1.7506  -1.5377  -1.4746  -1.3554
    -1.2415  -1.1776  -1.0939  -1.0319  -0.3737  -0.3214   0.0340   0.0776
     0.1693   0.1997   0.2917   0.3680   0.4973   0.5293   0.7215   0.8057
     1.0218   1.0986   1.2063   1.2817   1.3421   1.4317   1.5702   1.6343
     1.7556   1.8059   1.9082   1.9545   2.1357   2.2186   2.2678   2.3912
     2.4537   2.4807   2.5278   2.6127   2.6975   2.8002   2.9200   3.0362
     3.1108   3.1571   3.2126   3.3342   3.4429   3.4676   3.5367   3.5952
     3.7709   3.8527   3.9591   4.0048   4.0596   4.3663   4.6460   4.7368
     8.9209  10.7958  11.2394  11.5069  11.8751  12.7135  12.8670  12.9300
    13.0242  13.1867

     occupation numbers 
     1.0000   1.0000   1.0000   1.0000   1.0000   1.0000   1.0000   1.0000
     1.0000   1.0000   1.0000   1.0000   1.0000   1.0000   1.0000   1.0000
     1.0000   1.0000   1.0000   1.0000   1.0000   1.0000   1.0000   1.0000
     1.0000   1.0000   1.0000   1.0000   1.0000   1.0000   1.0000   1.0000
     1.0000   1.0000   1.0000   1.0000   1.0000   1.0000   1.0000   1.0000
     1.0000   1.0000   1.0000   1.0000   1.0000   1.0000   1.0000   1.0000
     1.0000   1.0000   1.0000   1.0000   1.0000   1.0000   1.0000   1.0000
     1.0000   1.0000   1.0000   1.0000   1.0000   1.0000   1.0000   1.0000
     1.0000   1.0000   1.0000   1.0000   1.0000   1.0000   1.0000   1.0000
     1.0000   1.0000   1.0000   1.0000   1.0000   1.0000   1.0000   1.0000
     1.0000   1.0000   1.0000   1.0000   1.0000   1.0000   1.0000   1.0000
     1.0000   1.0000   1.0000   1.0000   1.0000   1.0000   1.0000   1.0000
     1.0000   1.0000   1.0000   1.0000   1.0000   1.0000   1.0000   1.0000
     0.0000   0.0000   0.0000   0.0000   0.0000   0.0000   0.0000   0.0000
     0.0000   0.0000

          k = 0.0000 0.2430 0.2376 ( 37055 PWs)   bands (ev):

   -85.5651 -85.5538 -85.2493 -85.0880 -51.6334 -51.5991 -51.5293 -51.5265
   -51.5006 -51.4948 -51.4398 -51.3559 -51.2153 -51.0817 -51.0487 -50.8730
   -44.7170 -16.8266 -16.7191 -16.6834 -16.3216 -16.1392 -16.0603 -15.8342
   -14.0105 -13.8799 -13.8139 -13.7549 -13.7122 -13.6558 -13.6155 -13.5907
   -13.5274 -13.4879 -13.4584 -13.4323  -4.3442  -3.9878  -3.7648  -3.5229
    -2.3554  -2.2509  -2.0479  -1.8755  -1.7409  -1.5327  -1.4579  -1.3203
    -1.2393  -1.1818  -1.1138  -1.0375  -0.3838  -0.3108   0.0014   0.1012
     0.1801   0.2335   0.2831   0.3590   0.4677   0.5039   0.7548   0.7814
     0.9677   1.0889   1.2109   1.2870   1.3149   1.4222   1.5759   1.6980
     1.7874   1.8314   1.8875   1.9758   2.0863   2.1945   2.2544   2.3573
     2.4406   2.4656   2.4822   2.6098   2.6772   2.8028   2.8990   3.0351
     3.0898   3.1631   3.2241   3.3038   3.4113   3.4790   3.5569   3.6293
     3.7739   3.8452   3.9358   4.0490   4.0763   4.3642   4.6183   4.7398
     9.0577  10.8785  11.2943  11.5293  11.9010  12.6178  12.8597  12.8945
    13.0150  13.1253

     occupation numbers 
     1.0000   1.0000   1.0000   1.0000   1.0000   1.0000   1.0000   1.0000
     1.0000   1.0000   1.0000   1.0000   1.0000   1.0000   1.0000   1.0000
     1.0000   1.0000   1.0000   1.0000   1.0000   1.0000   1.0000   1.0000
     1.0000   1.0000   1.0000   1.0000   1.0000   1.0000   1.0000   1.0000
     1.0000   1.0000   1.0000   1.0000   1.0000   1.0000   1.0000   1.0000
     1.0000   1.0000   1.0000   1.0000   1.0000   1.0000   1.0000   1.0000
     1.0000   1.0000   1.0000   1.0000   1.0000   1.0000   1.0000   1.0000
     1.0000   1.0000   1.0000   1.0000   1.0000   1.0000   1.0000   1.0000
     1.0000   1.0000   1.0000   1.0000   1.0000   1.0000   1.0000   1.0000
     1.0000   1.0000   1.0000   1.0000   1.0000   1.0000   1.0000   1.0000
     1.0000   1.0000   1.0000   1.0000   1.0000   1.0000   1.0000   1.0000
     1.0000   1.0000   1.0000   1.0000   1.0000   1.0000   1.0000   1.0000
     1.0000   1.0000   1.0000   1.0000   1.0000   1.0000   1.0000   1.0000
     0.0000   0.0000   0.0000   0.0000   0.0000   0.0000   0.0000   0.0000
     0.0000   0.0000

          k = 0.0000 0.2430 0.4753 ( 37078 PWs)   bands (ev):

   -85.5651 -85.5538 -85.2493 -85.0880 -51.6334 -51.5991 -51.5293 -51.5265
   -51.5006 -51.4948 -51.4398 -51.3559 -51.2153 -51.0817 -51.0487 -50.8730
   -44.7170 -16.8278 -16.7226 -16.6887 -16.2918 -16.1119 -16.0396 -15.8244
   -14.0399 -13.9172 -13.8244 -13.7883 -13.7117 -13.6542 -13.6261 -13.5935
   -13.5495 -13.4903 -13.4581 -13.4264  -4.2713  -3.9661  -3.7427  -3.5133
    -2.2845  -2.2143  -2.0088  -1.8411  -1.7325  -1.5251  -1.4340  -1.3117
    -1.2392  -1.1629  -1.1158  -0.9929  -0.3821  -0.2884  -0.0217   0.1168
     0.1794   0.2328   0.3011   0.3878   0.4044   0.5208   0.7546   0.7835
     0.9031   1.0789   1.1597   1.2712   1.2978   1.3993   1.5257   1.6850
     1.7529   1.8576   1.9050   1.9551   2.0268   2.1506   2.1976   2.3023
     2.4098   2.4686   2.4983   2.5747   2.6334   2.7506   2.8805   2.9903
     3.0791   3.1671   3.2333   3.3040   3.3831   3.5318   3.6047   3.6738
     3.7758   3.8154   3.9234   4.0818   4.1230   4.3423   4.5877   4.7254
     9.4277  11.0786  11.3873  11.6124  12.0430  12.4779  12.6460  12.7423
    12.8713  12.9903

     occupation numbers 
     1.0000   1.0000   1.0000   1.0000   1.0000   1.0000   1.0000   1.0000
     1.0000   1.0000   1.0000   1.0000   1.0000   1.0000   1.0000   1.0000
     1.0000   1.0000   1.0000   1.0000   1.0000   1.0000   1.0000   1.0000
     1.0000   1.0000   1.0000   1.0000   1.0000   1.0000   1.0000   1.0000
     1.0000   1.0000   1.0000   1.0000   1.0000   1.0000   1.0000   1.0000
     1.0000   1.0000   1.0000   1.0000   1.0000   1.0000   1.0000   1.0000
     1.0000   1.0000   1.0000   1.0000   1.0000   1.0000   1.0000   1.0000
     1.0000   1.0000   1.0000   1.0000   1.0000   1.0000   1.0000   1.0000
     1.0000   1.0000   1.0000   1.0000   1.0000   1.0000   1.0000   1.0000
     1.0000   1.0000   1.0000   1.0000   1.0000   1.0000   1.0000   1.0000
     1.0000   1.0000   1.0000   1.0000   1.0000   1.0000   1.0000   1.0000
     1.0000   1.0000   1.0000   1.0000   1.0000   1.0000   1.0000   1.0000
     1.0000   1.0000   1.0000   1.0000   1.0000   1.0000   1.0000   1.0000
     0.0000   0.0000   0.0000   0.0000   0.0000   0.0000   0.0000   0.0000
     0.0000   0.0000

          k = 0.0000 0.2430 0.7129 ( 37105 PWs)   bands (ev):

   -85.5651 -85.5538 -85.2493 -85.0880 -51.6334 -51.5991 -51.5293 -51.5265
   -51.5006 -51.4948 -51.4398 -51.3559 -51.2153 -51.0817 -51.0487 -50.8730
   -44.7170 -16.8328 -16.7255 -16.6918 -16.2569 -16.0760 -16.0103 -15.8229
   -14.0737 -13.9600 -13.8455 -13.8204 -13.7132 -13.6564 -13.6408 -13.6031
   -13.5576 -13.4913 -13.4552 -13.4226  -4.1761  -3.9422  -3.7210  -3.5258
    -2.2529  -2.1084  -1.9403  -1.8217  -1.7274  -1.5165  -1.4274  -1.3774
    -1.2472  -1.1115  -1.0417  -0.9097  -0.3607  -0.2734  -0.0177   0.1088
     0.1898   0.2233   0.2991   0.3559   0.5160   0.5752   0.7306   0.7660
     0.8629   1.0311   1.0934   1.2448   1.2681   1.3372   1.4685   1.5779
     1.6765   1.7542   1.8741   1.9407   2.0469   2.0989   2.1862   2.2148
     2.3769   2.4472   2.4999   2.5630   2.6482   2.6903   2.8406   2.9905
     3.0585   3.1282   3.2266   3.3655   3.4433   3.5737   3.6510   3.6906
     3.7737   3.8085   3.9499   4.0941   4.1861   4.3017   4.5578   4.6987
     9.9438  11.3225  11.3792  11.7672  12.1372  12.3609  12.4497  12.5608
    12.7371  12.8389

     occupation numbers 
     1.0000   1.0000   1.0000   1.0000   1.0000   1.0000   1.0000   1.0000
     1.0000   1.0000   1.0000   1.0000   1.0000   1.0000   1.0000   1.0000
     1.0000   1.0000   1.0000   1.0000   1.0000   1.0000   1.0000   1.0000
     1.0000   1.0000   1.0000   1.0000   1.0000   1.0000   1.0000   1.0000
     1.0000   1.0000   1.0000   1.0000   1.0000   1.0000   1.0000   1.0000
     1.0000   1.0000   1.0000   1.0000   1.0000   1.0000   1.0000   1.0000
     1.0000   1.0000   1.0000   1.0000   1.0000   1.0000   1.0000   1.0000
     1.0000   1.0000   1.0000   1.0000   1.0000   1.0000   1.0000   1.0000
     1.0000   1.0000   1.0000   1.0000   1.0000   1.0000   1.0000   1.0000
     1.0000   1.0000   1.0000   1.0000   1.0000   1.0000   1.0000   1.0000
     1.0000   1.0000   1.0000   1.0000   1.0000   1.0000   1.0000   1.0000
     1.0000   1.0000   1.0000   1.0000   1.0000   1.0000   1.0000   1.0000
     1.0000   1.0000   1.0000   1.0000   1.0000   1.0000   1.0000   1.0000
     0.0000   0.0000   0.0000   0.0000   0.0000   0.0000   0.0000   0.0000
     0.0000   0.0000

          k = 0.0000 0.2430 0.9505 ( 37114 PWs)   bands (ev):

   -85.5651 -85.5538 -85.2493 -85.0880 -51.6334 -51.5991 -51.5293 -51.5265
   -51.5006 -51.4948 -51.4398 -51.3559 -51.2153 -51.0817 -51.0487 -50.8730
   -44.7170 -16.8386 -16.7261 -16.6928 -16.2340 -16.0483 -15.9803 -15.8360
   -14.0956 -13.9883 -13.8714 -13.8275 -13.7165 -13.6673 -13.6544 -13.6059
   -13.5555 -13.4911 -13.4511 -13.4205  -4.1025  -3.9270  -3.7002  -3.5616
    -2.2365  -2.0268  -1.8837  -1.8117  -1.7219  -1.5343  -1.4605  -1.3859
    -1.2668  -1.0793  -0.9478  -0.8430  -0.3265  -0.2638   0.0035   0.0969
     0.1417   0.2024   0.3262   0.4412   0.5972   0.6644   0.7022   0.7372
     0.8161   0.9301   1.0630   1.1549   1.2335   1.3122   1.4192   1.5326
     1.5608   1.7192   1.8551   1.8979   1.9679   2.0979   2.1536   2.2400
     2.3441   2.4229   2.4960   2.5531   2.6316   2.7234   2.8100   2.9994
     3.0479   3.0951   3.2700   3.4043   3.5057   3.5590   3.6795   3.7110
     3.7682   3.8470   3.9708   4.0927   4.1882   4.2991   4.5442   4.6648
    10.5123  11.0536  11.5826  11.8862  12.0177  12.2773  12.4547  12.5961
    12.6662  12.7362

     occupation numbers 
     1.0000   1.0000   1.0000   1.0000   1.0000   1.0000   1.0000   1.0000
     1.0000   1.0000   1.0000   1.0000   1.0000   1.0000   1.0000   1.0000
     1.0000   1.0000   1.0000   1.0000   1.0000   1.0000   1.0000   1.0000
     1.0000   1.0000   1.0000   1.0000   1.0000   1.0000   1.0000   1.0000
     1.0000   1.0000   1.0000   1.0000   1.0000   1.0000   1.0000   1.0000
     1.0000   1.0000   1.0000   1.0000   1.0000   1.0000   1.0000   1.0000
     1.0000   1.0000   1.0000   1.0000   1.0000   1.0000   1.0000   1.0000
     1.0000   1.0000   1.0000   1.0000   1.0000   1.0000   1.0000   1.0000
     1.0000   1.0000   1.0000   1.0000   1.0000   1.0000   1.0000   1.0000
[...]
     atom    6 type  4   force =    -0.01894816    0.00775697   -0.00284819
     atom    7 type  4   force =     0.02432183    0.00076764   -0.00155100
     atom    8 type  4   force =     0.01746702   -0.00827718    0.00198666
     atom    9 type  4   force =    -0.02256374   -0.00030633    0.00177175
     atom   10 type  3   force =     0.00216981    0.00224174    0.00598278
     atom   11 type  3   force =    -0.00148133    0.00109509   -0.00051813
     atom   12 type  3   force =    -0.00227785   -0.00302986   -0.00581738
     atom   13 type  3   force =     0.00045766   -0.00113834    0.00099092
     atom   14 type  3   force =     0.02778425    0.00008791   -0.00633328
     atom   15 type  3   force =    -0.02686236    0.00655891   -0.00442360
     atom   16 type  3   force =    -0.03048490   -0.00014780    0.00527047
     atom   17 type  3   force =     0.02851961   -0.00617557    0.00398767
     atom   18 type  3   force =    -0.00388234   -0.00315731    0.00442164
     atom   19 type  3   force =     0.00311385    0.00052584    0.00077408
     atom   20 type  3   force =    -0.00139728   -0.00033504   -0.00328923
     atom   21 type  3   force =    -0.00090686    0.00126460   -0.00063261
     atom   22 type  3   force =     0.00534982    0.00297990   -0.00389145
     atom   23 type  3   force =    -0.00403956   -0.00058537   -0.00145729
     atom   24 type  3   force =     0.00160777   -0.00017163    0.00255030
     atom   25 type  3   force =     0.00149877   -0.00119309    0.00109067
     The non-local contrib.  to forces
     atom    1 type  2   force =    -0.05876705   -0.03886485   -0.00437773
     atom    2 type  1   force =     0.02900930   -0.15210140    0.00952706
     atom    3 type  1   force =    -0.01509697   -0.21508698    0.12628338
     atom    4 type  1   force =    -0.07128093    0.14342598    0.01295030
     atom    5 type  1   force =     0.03797330    0.18924779   -0.12489665
     atom    6 type  4   force =    -0.06674228    0.05157188   -0.00862268
     atom    7 type  4   force =     0.01203217    0.00731752   -0.06597899
     atom    8 type  4   force =     0.05249644   -0.04256400    0.02334662
     atom    9 type  4   force =    -0.01488734   -0.00936359    0.06751540
     atom   10 type  3   force =    -0.04556596   -0.08793755   -1.38960073
     atom   11 type  3   force =    -0.11740988    0.12856545   -1.45923477
     atom   12 type  3   force =    -0.03058669    0.08047971    1.45092028
     atom   13 type  3   force =     0.11059898   -0.13468424    1.47039103
     atom   14 type  3   force =     1.30881553   -0.00594500   -0.61010081
     atom   15 type  3   force =    -1.19162529    0.51617239   -0.44691382
     atom   16 type  3   force =    -1.34076343   -0.00312407    0.56642626
     atom   17 type  3   force =     1.17927765   -0.51935371    0.34958100
     atom   18 type  3   force =    -0.62291779   -1.30609298    0.54644854
     atom   19 type  3   force =     0.45527357    0.87853031    0.91810311
     atom   20 type  3   force =     0.03155143   -1.23885862   -1.06939209
     atom   21 type  3   force =    -0.37564608    1.03802070   -0.66145950
     atom   22 type  3   force =     0.71047336    1.21735721   -0.43226064
     atom   23 type  3   force =    -0.50034812   -0.86141119   -0.91670612
     atom   24 type  3   force =    -0.10093024    1.26954469    1.04803141
     atom   25 type  3   force =     0.44997197   -1.01325483    0.70634362
     The ionic contribution  to forces
     atom    1 type  2   force =    -0.99885491    0.50666709    1.76498281
     atom    2 type  1   force =    12.62474070   -3.21182045   -0.46281359
     atom    3 type  1   force =     3.17258993   -3.12246691   -2.28714183
     atom    4 type  1   force =   -11.89264624    2.06700833    1.19913729
     atom    5 type  1   force =    -5.08040575    2.98827093    1.39281794
     atom    6 type  4   force =    -0.57846916   -0.19786061   -0.22226445
     atom    7 type  4   force =     4.65143934    0.38804774    0.59211114
     atom    8 type  4   force =     1.41926824   -0.12732800    0.01769514
     atom    9 type  4   force =    -5.00039654   -0.10500752   -0.79352699
     atom   10 type  3   force =    -2.96013920   -1.13291121    0.74752244
     atom   11 type  3   force =     9.62574921   -0.63803871    2.38041822
     atom   12 type  3   force =     5.52798248   -0.28382594   -2.11361663
     atom   13 type  3   force =    -9.99678030    1.09197536   -2.44151360
     atom   14 type  3   force =     1.90179933   -0.45327011    6.61966232
     atom   15 type  3   force =    -0.30937496   -0.84870773    3.80818438
     atom   16 type  3   force =    -1.87726748    0.42749299   -6.42402932
     atom   17 type  3   force =     0.52393368    2.14840154   -3.05976681
     atom   18 type  3   force =     0.94195215    6.21244697    2.57193288
     atom   19 type  3   force =     6.40913464   -1.31354258   -4.13798585
     atom   20 type  3   force =     3.69514827    0.76913372    8.20112908
     atom   21 type  3   force =    -7.38688975   -2.85611065    1.32080594
     atom   22 type  3   force =    -1.44068941   -4.56227537   -3.06717255
     atom   23 type  3   force =    -6.16980170    1.76733073    4.10255209
     atom   24 type  3   force =    -3.12978122   -2.06866963   -7.87101182
     atom   25 type  3   force =     6.32775867    2.55506001   -1.83810823
     The local contribution  to forces
     atom    1 type  2   force =     1.05773481   -0.46743211   -1.75904097
     atom    2 type  1   force =   -12.65057336    3.36211949    0.45634429
     atom    3 type  1   force =    -3.16166271    3.33523934    2.16147478
     atom    4 type  1   force =    11.96152918   -2.20832104   -1.21462077
     atom    5 type  1   force =     5.04592270   -3.17465839   -1.26841226
     atom    6 type  4   force =     0.62024407    0.15759643    0.22725012
     atom    7 type  4   force =    -4.63723147   -0.39371616   -0.53256430
     atom    8 type  4   force =    -1.44908564    0.15881707   -0.03725564
     atom    9 type  4   force =     4.99058527    0.11326894    0.73256382
     atom   10 type  3   force =     3.00816632    1.22228452    0.63602022
     atom   11 type  3   force =    -9.51156745    0.51180765   -0.93440786
     atom   12 type  3   force =    -5.50060371    0.20098994    0.66952544
     atom   13 type  3   force =     9.88833378   -0.95974683    0.98488225
     atom   14 type  3   force =    -3.17120930    0.45923637   -6.02192262
     atom   15 type  3   force =     1.46360438    0.34410996   -3.37028257
     atom   16 type  3   force =     3.17562185   -0.42452136    5.86852660
     atom   17 type  3   force =    -1.66428025   -1.64031644    2.71784382
     atom   18 type  3   force =    -0.32819802   -4.92153362   -3.10933825
     atom   19 type  3   force =    -6.85726690    0.44297939    3.22912990
     atom   20 type  3   force =    -3.72808018    0.45879169   -7.14504521
     atom   21 type  3   force =     7.75834121    1.82835351   -0.66598732
     atom   22 type  3   force =     0.74169586    3.35914834    3.49203174
     atom   23 type  3   force =     6.66166422   -0.91374513   -3.19574464
     atom   24 type  3   force =     3.23166465    0.80976680    6.83533772
     atom   25 type  3   force =    -6.77225429   -1.55177915    1.13929943
     The core correction contribution to forces
     atom    1 type  2   force =     0.00000000    0.00000000    0.00000000
     atom    2 type  1   force =    -0.00096343    0.00185314    0.00048038
     atom    3 type  1   force =     0.00119104    0.00220000   -0.00062221
     atom    4 type  1   force =     0.00152512   -0.00192015   -0.00087725
     atom    5 type  1   force =    -0.00142080   -0.00211931    0.00073737
     atom    6 type  4   force =     0.00601633   -0.00355059    0.00078847
     atom    7 type  4   force =    -0.00191362   -0.00088143    0.00488137
     atom    8 type  4   force =    -0.00521675    0.00279708   -0.00179918
     atom    9 type  4   force =     0.00213628    0.00079629   -0.00478099
     atom   10 type  3   force =    -0.00029643    0.00080594    0.01203871
     atom   11 type  3   force =     0.00175215   -0.00123921    0.01270482
     atom   12 type  3   force =     0.00092049   -0.00067502   -0.01265082
     atom   13 type  3   force =    -0.00169572    0.00131792   -0.01276618
     atom   14 type  3   force =    -0.01161346    0.00006660    0.00602879
     atom   15 type  3   force =     0.01052854   -0.00501579    0.00458871
     atom   16 type  3   force =     0.01193329    0.00000431   -0.00565050
     atom   17 type  3   force =    -0.01041346    0.00509399   -0.00367188
     atom   18 type  3   force =     0.00527760    0.01202380   -0.00461980
     atom   19 type  3   force =    -0.00402316   -0.00743748   -0.00847357
     atom   20 type  3   force =    -0.00002049    0.01059411    0.01002137
     atom   21 type  3   force =     0.00328735   -0.00900671    0.00600390
     atom   22 type  3   force =    -0.00613752   -0.01124631    0.00351463
     atom   23 type  3   force =     0.00444587    0.00724920    0.00843726
     atom   24 type  3   force =     0.00065111   -0.01081366   -0.00980769
     atom   25 type  3   force =    -0.00397318    0.00877774   -0.00644448
     The Hubbard contrib.    to forces
     atom    1 type  2   force =     0.00000000    0.00000000    0.00000000
     atom    2 type  1   force =     0.00000000    0.00000000    0.00000000
     atom    3 type  1   force =     0.00000000    0.00000000    0.00000000
     atom    4 type  1   force =     0.00000000    0.00000000    0.00000000
     atom    5 type  1   force =     0.00000000    0.00000000    0.00000000
     atom    6 type  4   force =     0.00000000    0.00000000    0.00000000
     atom    7 type  4   force =     0.00000000    0.00000000    0.00000000
     atom    8 type  4   force =     0.00000000    0.00000000    0.00000000
     atom    9 type  4   force =     0.00000000    0.00000000    0.00000000
     atom   10 type  3   force =     0.00000000    0.00000000    0.00000000
     atom   11 type  3   force =     0.00000000    0.00000000    0.00000000
     atom   12 type  3   force =     0.00000000    0.00000000    0.00000000
     atom   13 type  3   force =     0.00000000    0.00000000    0.00000000
     atom   14 type  3   force =     0.00000000    0.00000000    0.00000000
     atom   15 type  3   force =     0.00000000    0.00000000    0.00000000
     atom   16 type  3   force =     0.00000000    0.00000000    0.00000000
     atom   17 type  3   force =     0.00000000    0.00000000    0.00000000
     atom   18 type  3   force =     0.00000000    0.00000000    0.00000000
     atom   19 type  3   force =     0.00000000    0.00000000    0.00000000
     atom   20 type  3   force =     0.00000000    0.00000000    0.00000000
     atom   21 type  3   force =     0.00000000    0.00000000    0.00000000
     atom   22 type  3   force =     0.00000000    0.00000000    0.00000000
     atom   23 type  3   force =     0.00000000    0.00000000    0.00000000
     atom   24 type  3   force =     0.00000000    0.00000000    0.00000000
     atom   25 type  3   force =     0.00000000    0.00000000    0.00000000
     The SCF correction term to forces
     atom    1 type  2   force =     0.00000636   -0.00000181   -0.00000066
     atom    2 type  1   force =    -0.00000588   -0.00000057   -0.00000066
     atom    3 type  1   force =    -0.00000108    0.00000117    0.00000077
     atom    4 type  1   force =     0.00000260   -0.00000036    0.00000072
     atom    5 type  1   force =     0.00000634    0.00000025    0.00000088
     atom    6 type  4   force =     0.00000253   -0.00000010   -0.00000003
     atom    7 type  4   force =    -0.00000494    0.00000002   -0.00000058
     atom    8 type  4   force =     0.00000438    0.00000072   -0.00000065
     atom    9 type  4   force =    -0.00000175   -0.00000040    0.00000015
     atom   10 type  3   force =     0.00000474    0.00000009    0.00000177
     atom   11 type  3   force =    -0.00000571   -0.00000005    0.00000109
     atom   12 type  3   force =     0.00000922    0.00000150    0.00000399
     atom   13 type  3   force =     0.00000057   -0.00000050   -0.00000294
     atom   14 type  3   force =    -0.00000820    0.00000010   -0.00000133
     atom   15 type  3   force =     0.00000463    0.00000012   -0.00000067
     atom   16 type  3   force =    -0.00000948    0.00000038   -0.00000293
     atom   17 type  3   force =     0.00000164   -0.00000090    0.00000117
     atom   18 type  3   force =     0.00000337   -0.00000143   -0.00000209
     atom   19 type  3   force =    -0.00000465   -0.00000374    0.00000013
     atom   20 type  3   force =     0.00000333    0.00000413   -0.00000274
     atom   21 type  3   force =     0.00000007    0.00000780    0.00000400
     atom   22 type  3   force =     0.00000718   -0.00000393   -0.00000499
     atom   23 type  3   force =    -0.00000020   -0.00000893    0.00000374
     atom   24 type  3   force =     0.00000312    0.00000022    0.00000031
     atom   25 type  3   force =    -0.00000474    0.00000320   -0.00000004

     Total force =     0.075066     Total SCF correction =     0.000031


     Computing stress (Cartesian axis) and pressure


     negative rho (up, down):  0.000E+00 9.563E-04
          total   stress  (Ry/bohr**3)                   (kbar)     P=      -24.46
  -0.00058968   0.00007185  -0.00000589          -86.74       10.57       -0.87
   0.00007185   0.00005449  -0.00010986           10.57        8.02      -16.16
  -0.00000589  -0.00010986   0.00003630           -0.87      -16.16        5.34

     kinetic stress (kbar)  25968.95     42.62    -48.20
                               42.62  26212.60    -23.07
                              -48.20    -23.07  26078.66

     local   stress (kbar)  -6522.28   3738.76  -4688.85
                             3738.76 -14324.03   1942.40
                            -4688.85   1942.40  -6389.58

     nonloc. stress (kbar)  -6654.63      9.54      1.93
                                9.54  -6606.98      6.77
                                1.93      6.77  -6614.13

     hartree stress (kbar)  13303.25  -1465.26   1933.35
                            -1465.26  17606.09   -764.53
                             1933.35   -764.53  13800.35

     exc-cor stress (kbar)  -2751.84     -2.84      2.31
                               -2.84  -2757.54     -1.16
                                2.31     -1.16  -2755.93

     corecor stress (kbar)  -3062.29      0.59     -0.80
                                0.59  -3064.33      0.11
                               -0.80      0.11  -3064.62

     ewald   stress (kbar) -20367.91  -2312.84   2799.40
                            -2312.84 -17057.80  -1176.68
                             2799.40  -1176.68 -21049.41

     hubbard stress (kbar)      0.00      0.00      0.00
                                0.00      0.00      0.00
                                0.00      0.00      0.00

     DFT-D   stress (kbar)      0.00      0.00      0.00
                                0.00      0.00      0.00
                                0.00      0.00      0.00

     XDM     stress (kbar)      0.00      0.00      0.00
                                0.00      0.00      0.00
                                0.00      0.00      0.00

     dft-nl  stress (kbar)      0.00      0.00      0.00
                                0.00      0.00      0.00
                                0.00      0.00      0.00

     TS-vdW  stress (kbar)      0.00      0.00      0.00
                                0.00      0.00      0.00
                                0.00      0.00      0.00



     init_run     :   2088.81s CPU   2485.62s WALL (       1 calls)
     electrons    : 175346.09s CPU 213925.39s WALL (       1 calls)
     forces       :    266.48s CPU    350.72s WALL (       1 calls)
     stress       :    772.68s CPU   1003.38s WALL (       1 calls)

     Called by init_run:
     wfcinit      :   2069.65s CPU   2462.03s WALL (       1 calls)
     wfcinit:atom :      1.51s CPU      1.83s WALL (     316 calls)
     wfcinit:wfcr :   2059.39s CPU   2449.15s WALL (     316 calls)
     potinit      :      7.10s CPU      9.61s WALL (       1 calls)
     hinit0       :      8.24s CPU      9.22s WALL (       1 calls)

     Called by electrons:
     c_bands      : 146588.33s CPU 178566.10s WALL (      37 calls)
     sum_band     :  28483.83s CPU  35010.62s WALL (      37 calls)
     v_of_rho     :     83.16s CPU     99.02s WALL (      38 calls)
     v_h          :      5.78s CPU      6.84s WALL (      38 calls)
     v_xc         :     81.25s CPU     97.03s WALL (      40 calls)
     newd         :     84.57s CPU    122.40s WALL (      38 calls)
     PAW_pot      :     37.98s CPU     44.85s WALL (      38 calls)
     mix_rho      :     53.41s CPU     64.91s WALL (      37 calls)

     Called by c_bands:
     init_us_2    :    181.12s CPU    220.67s WALL (   24332 calls)
     cegterg      : 145228.33s CPU 176867.90s WALL (   11692 calls)

     Called by sum_band:
     sum_band:wei :      0.62s CPU      0.85s WALL (      37 calls)
     sum_band:loo :  28267.43s CPU  34722.98s WALL (      37 calls)
     sum_band:buf :     47.35s CPU     52.66s WALL (   11692 calls)
     sum_band:ini :     79.01s CPU     98.26s WALL (   11692 calls)
     sum_band:cal :   2280.46s CPU   2782.21s WALL (   11692 calls)
     sum_band:bec :      6.35s CPU      6.72s WALL (   11692 calls)
     addusdens    :    173.65s CPU    240.52s WALL (      37 calls)
     addusd:skk   :      0.93s CPU      1.23s WALL (     111 calls)
     addusd:dgemm :     46.23s CPU     79.13s WALL (     222 calls)
     addusd:qvan2 :    123.66s CPU    152.20s WALL (     222 calls)

     Called by *egterg:
     cdiaghg      :   3861.95s CPU   4780.57s WALL (   43256 calls)
     cegterg:over :   6577.12s CPU   7893.06s WALL (   31564 calls)
     cegterg:upda :   1237.18s CPU   1552.63s WALL (   31564 calls)
     cegterg:last :   2857.87s CPU   3554.41s WALL (   20162 calls)
     h_psi        : 123875.77s CPU 150852.28s WALL (   43572 calls)
     s_psi        :   2885.08s CPU   3578.12s WALL (   43572 calls)
     g_psi        :     21.08s CPU     25.37s WALL (   31564 calls)

     Called by h_psi:
     h_psi:calbec :   5899.32s CPU   7112.87s WALL (   43572 calls)
     vloc_psi     : 114946.97s CPU 139924.15s WALL (   43572 calls)
     add_vuspsi   :   2953.57s CPU   3729.84s WALL (   43572 calls)

     General routines
     calbec       :   8536.91s CPU  10361.41s WALL (   56844 calls)
     fft          :    127.01s CPU    146.70s WALL (     988 calls)
     ffts         :     11.65s CPU     14.31s WALL (     150 calls)
     fftw         : 140356.44s CPU 171260.88s WALL ( 7193084 calls)
     interpolate  :     13.29s CPU     15.85s WALL (      76 calls)

     Parallel routines
     fft_scatt_xy :    656.08s CPU    685.51s WALL ( 7194222 calls)
     fft_scatt_yz : 136855.04s CPU 167657.66s WALL ( 7194222 calls)

     PAW routines
     PAW_pot      :     37.98s CPU     44.85s WALL (      38 calls)

     PWSCF        :   2d 1h34m CPU   2d12h29m WALL


   This run was terminated on:  23:10:11  21Jan2023            

=------------------------------------------------------------------------------=
   JOB DONE.
=------------------------------------------------------------------------------=
Note: The following floating-point exceptions are signalling: IEEE_UNDERFLOW_FLAG IEEE_DENORMAL
Note: The following floating-point exceptions are signalling: IEEE_DENORMAL
Note: The following floating-point exceptions are signalling: IEEE_DENORMAL
Note: The following floating-point exceptions are signalling: IEEE_DENORMAL
Note: The following floating-point exceptions are signalling: IEEE_DENORMAL
Note: The following floating-point exceptions are signalling: IEEE_DENORMAL
Note: The following floating-point exceptions are signalling: IEEE_DENORMAL
