
     Program PWSCF v.6.7MaX starts on  3Feb2023 at  4:48:35 

     This program is part of the open-source Quantum ESPRESSO suite
     for quantum simulation of materials; please cite
         "P. Giannozzi et al., J. Phys.:Condens. Matter 21 395502 (2009);
         "P. Giannozzi et al., J. Phys.:Condens. Matter 29 465901 (2017);
          URL http://www.quantum-espresso.org", 
     in publications or presentations arising from this work. More details at
     http://www.quantum-espresso.org/quote

     Parallel version (MPI), running on    24 processors

     MPI processes distributed on     1 nodes
     R & G space division:  proc/nbgrp/npool/nimage =      24
     Reading input from scale_3d-05.in

     Current dimensions of program PWSCF are:
     Max number of different atomic species (ntypx) = 10
     Max number of k-points (npk) =  40000
     Max angular momentum in pseudopotentials (lmaxx) =  3
     Message from routine read_pp_mesh:
     mesh size missing, using the one in header
     file Fe.pbe-spn-kjpaw_psl.0.2.1.UPF: wavefunction(s)  3D renormalized
     file O.pbe-n-kjpaw_psl.0.1.UPF: wavefunction(s)  2P renormalized

     Subspace diagonalization in iterative solution of the eigenvalue problem:
     a serial algorithm will be used


     Parallelization info
     --------------------
     sticks:   dense  smooth     PW     G-vecs:    dense   smooth      PW
     Min         912     338     91                62459    14078    1965
     Max         914     339     92                62462    14080    1966
     Sum       21895    8121   2193              1499053   337887   47169



     bravais-lattice index     =            0
     lattice parameter (alat)  =      20.6483  a.u.
     unit-cell volume          =    2500.8842 (a.u.)^3
     number of atoms/cell      =           25
     number of atomic types    =            4
     number of electrons       =       189.00
     number of Kohn-Sham states=          114
     kinetic-energy cutoff     =     100.0000  Ry
     charge density cutoff     =    1080.0000  Ry
     scf convergence threshold =      2.0E-10
     mixing beta               =       0.4000
     number of iterations used =            8  plain     mixing
     Exchange-correlation= PBE
                           (   1   4   3   4   0   0   0)

     celldm(1)=  20.648310  celldm(2)=   0.000000  celldm(3)=   0.000000
     celldm(4)=   0.000000  celldm(5)=   0.000000  celldm(6)=   0.000000

     crystal axes: (cart. coord. in units of alat)
               a(1) = (   1.000000   0.000000   0.000000 )  
               a(2) = (   0.000000   0.597590   0.000000 )  
               a(3) = (   0.000000   0.000000   0.475375 )  

     reciprocal axes: (cart. coord. in units 2 pi/alat)
               b(1) = (  1.000000  0.000000  0.000000 )  
               b(2) = (  0.000000  1.673388  0.000000 )  
               b(3) = (  0.000000  0.000000  2.103600 )  


     PseudoPot. # 1 for Fe read from file:
     /opt/QEpot/SSSP_precision_pseudos/Fe.pbe-spn-kjpaw_psl.0.2.1.UPF
     MD5 check sum: e86618425769142926afa95317d90200
     Pseudo is Projector augmented-wave + core cor, Zval = 16.0
     Generated using "atomic" code by A. Dal Corso  v.5.0.99 svn rev. 10869
     Shape of augmentation charge: PSQ
     Using radial grid of 1191 points,  6 beta functions with: 
                l(1) =   0
                l(2) =   0
                l(3) =   1
                l(4) =   1
                l(5) =   2
                l(6) =   2
     Q(r) pseudized with 0 coefficients 


     PseudoPot. # 2 for Na read from file:
     /opt/QEpot/SSSP_precision_pseudos/Na_ONCV_PBE-1.0.oncvpsp.upf
     MD5 check sum: 24a298df0a6742ae313db96548fdb2a4
     Pseudo is Norm-conserving, Zval =  9.0
     Generated using ONCVPSP code by D. R. Hamann
     Using radial grid of 1992 points,  4 beta functions with: 
                l(1) =   0
                l(2) =   0
                l(3) =   1
                l(4) =   1

     PseudoPot. # 3 for O  read from file:
     /opt/QEpot/SSSP_precision_pseudos/O.pbe-n-kjpaw_psl.0.1.UPF
     MD5 check sum: 0234752ac141de4415c5fc33072bef88
     Pseudo is Projector augmented-wave + core cor, Zval =  6.0
     Generated using "atomic" code by A. Dal Corso  v.5.0.99 svn rev. 10869
     Shape of augmentation charge: BESSEL
     Using radial grid of 1095 points,  4 beta functions with: 
                l(1) =   0
                l(2) =   0
                l(3) =   1
                l(4) =   1
     Q(r) pseudized with 0 coefficients 


     PseudoPot. # 4 for P  read from file:
     /opt/QEpot/SSSP_precision_pseudos/P.pbe-n-rrkjus_psl.1.0.0.UPF
     MD5 check sum: 8b930f418f0a4573dca56cd030ffe088
     Pseudo is Ultrasoft + core correction, Zval =  5.0
     Generated using "atomic" code by A. Dal Corso  v.5.1
     Using radial grid of 1147 points,  6 beta functions with: 
                l(1) =   0
                l(2) =   0
                l(3) =   1
                l(4) =   1
                l(5) =   2
                l(6) =   2
     Q(r) pseudized with 0 coefficients 


     atomic species   valence    mass     pseudopotential
        Fe            16.00    55.84500     Fe( 1.00)
        Na             9.00    22.98977     Na( 1.00)
        O              6.00    15.99940     O ( 1.00)
        P              5.00    30.97376     P ( 1.00)

     Starting magnetic structure 
     atomic species   magnetization
        Fe           0.312
        Na           0.000
        O            0.000
        P            0.000

     No symmetry found


                                    s                        frac. trans.

      isym =  1     identity                                     

 cryst.   s( 1) = (     1          0          0      )
                  (     0          1          0      )
                  (     0          0          1      )

 cart.    s( 1) = (  1.0000000  0.0000000  0.0000000 )
                  (  0.0000000  1.0000000  0.0000000 )
                  (  0.0000000  0.0000000  1.0000000 )


   Cartesian axes

     site n.     atom                  positions (alat units)
         1           Na  tau(   1) = (   0.9999980   0.0000000   0.0000029  )
         2           Fe  tau(   2) = (   0.2867560   0.4460794   0.4706484  )
         3           Fe  tau(   3) = (   0.2233660   0.1521093   0.2355671  )
         4           Fe  tau(   4) = (   0.7132500   0.1515135   0.0047295  )
         5           Fe  tau(   5) = (   0.7766390   0.4454836   0.2398112  )
         6           P   tau(   6) = (   0.1081020   0.4457710   0.2117004  )
         7           P   tau(   7) = (   0.3915960   0.1487097   0.4492764  )
         8           P   tau(   8) = (   0.8919040   0.1518219   0.2636794  )
         9           P   tau(   9) = (   0.6084100   0.4488833   0.0261010  )
        10           O   tau(  10) = (   0.1288530   0.4505057   0.3586052  )
        11           O   tau(  11) = (   0.3681240   0.1483858   0.1200499  )
        12           O   tau(  12) = (   0.8711530   0.1470872   0.1167717  )
        13           O   tau(  13) = (   0.6318820   0.4492071   0.3553289  )
        14           O   tau(  14) = (   0.4626860   0.4491420   0.0550708  )
        15           O   tau(  15) = (   0.0379730   0.1464053   0.2960539  )
        16           O   tau(  16) = (   0.5373200   0.1484509   0.4203075  )
        17           O   tau(  17) = (   0.9620320   0.4511876   0.1793240  )
        18           O   tau(  18) = (   0.1766340   0.5619359   0.1403822  )
        19           O   tau(  19) = (   0.3194030   0.0336198   0.3812131  )
        20           O   tau(  20) = (   0.8223270   0.2689908   0.3287008  )
        21           O   tau(  21) = (   0.6786820   0.3316977   0.0933495  )
        22           O   tau(  22) = (   0.8233720   0.0356570   0.3349957  )
        23           O   tau(  23) = (   0.6806030   0.5639737   0.0941648  )
        24           O   tau(  24) = (   0.1776790   0.3286021   0.1466771  )
        25           O   tau(  25) = (   0.3213240   0.2658952   0.3820284  )

   Crystallographic axes

     site n.     atom                  positions (cryst. coord.)
         1           Na  tau(   1) = (  0.9999980  0.0000000  0.0000060  )
         2           Fe  tau(   2) = (  0.2867560  0.7464640  0.9900560  )
         3           Fe  tau(   3) = (  0.2233660  0.2545380  0.4955390  )
         4           Fe  tau(   4) = (  0.7132500  0.2535410  0.0099490  )
         5           Fe  tau(   5) = (  0.7766390  0.7454670  0.5044670  )
         6           P   tau(   6) = (  0.1081020  0.7459480  0.4453330  )
         7           P   tau(   7) = (  0.3915960  0.2488490  0.9450980  )
         8           P   tau(   8) = (  0.8919040  0.2540570  0.5546760  )
         9           P   tau(   9) = (  0.6084100  0.7511560  0.0549060  )
        10           O   tau(  10) = (  0.1288530  0.7538710  0.7543620  )
        11           O   tau(  11) = (  0.3681240  0.2483070  0.2525370  )
        12           O   tau(  12) = (  0.8711530  0.2461340  0.2456410  )
        13           O   tau(  13) = (  0.6318820  0.7516980  0.7474700  )
        14           O   tau(  14) = (  0.4626860  0.7515890  0.1158470  )
        15           O   tau(  15) = (  0.0379730  0.2449930  0.6227790  )
        16           O   tau(  16) = (  0.5373200  0.2484160  0.8841590  )
        17           O   tau(  17) = (  0.9620320  0.7550120  0.3772260  )
        18           O   tau(  18) = (  0.1766340  0.9403370  0.2953080  )
        19           O   tau(  19) = (  0.3194030  0.0562590  0.8019200  )
        20           O   tau(  20) = (  0.8223270  0.4501260  0.6914550  )
        21           O   tau(  21) = (  0.6786820  0.5550590  0.1963700  )
        22           O   tau(  22) = (  0.8233720  0.0596680  0.7046970  )
        23           O   tau(  23) = (  0.6806030  0.9437470  0.1980850  )
        24           O   tau(  24) = (  0.1776790  0.5498790  0.3085500  )
        25           O   tau(  25) = (  0.3213240  0.4449460  0.8036350  )

     number of k points=   158  Marzari-Vanderbilt smearing, width (Ry)=  0.0073
                       cart. coord. in units 2pi/alat
        k(    1) = (   0.0000000   0.0000000   0.0000000), wk =   0.0031746
        k(    2) = (   0.0000000   0.0000000   0.2337334), wk =   0.0063492
        k(    3) = (   0.0000000   0.0000000   0.4674667), wk =   0.0063492
        k(    4) = (   0.0000000   0.0000000   0.7012001), wk =   0.0063492
        k(    5) = (   0.0000000   0.0000000   0.9349334), wk =   0.0063492
        k(    6) = (   0.0000000   0.2390555   0.0000000), wk =   0.0063492
        k(    7) = (   0.0000000   0.2390555   0.2337334), wk =   0.0063492
        k(    8) = (   0.0000000   0.2390555   0.4674667), wk =   0.0063492
        k(    9) = (   0.0000000   0.2390555   0.7012001), wk =   0.0063492
        k(   10) = (   0.0000000   0.2390555   0.9349334), wk =   0.0063492
        k(   11) = (   0.0000000   0.4781110   0.0000000), wk =   0.0063492
        k(   12) = (   0.0000000   0.4781110   0.2337334), wk =   0.0063492
        k(   13) = (   0.0000000   0.4781110   0.4674667), wk =   0.0063492
        k(   14) = (   0.0000000   0.4781110   0.7012001), wk =   0.0063492
        k(   15) = (   0.0000000   0.4781110   0.9349334), wk =   0.0063492
        k(   16) = (   0.0000000   0.7171664   0.0000000), wk =   0.0063492
        k(   17) = (   0.0000000   0.7171664   0.2337334), wk =   0.0063492
        k(   18) = (   0.0000000   0.7171664   0.4674667), wk =   0.0063492
        k(   19) = (   0.0000000   0.7171664   0.7012001), wk =   0.0063492
        k(   20) = (   0.0000000   0.7171664   0.9349334), wk =   0.0063492
        k(   21) = (   0.2000000   0.0000000   0.0000000), wk =   0.0063492
        k(   22) = (   0.2000000   0.0000000   0.2337334), wk =   0.0063492
        k(   23) = (   0.2000000   0.0000000   0.4674667), wk =   0.0063492
        k(   24) = (   0.2000000   0.0000000   0.7012001), wk =   0.0063492
        k(   25) = (   0.2000000   0.0000000   0.9349334), wk =   0.0063492
        k(   26) = (   0.2000000   0.2390555   0.0000000), wk =   0.0063492
        k(   27) = (   0.2000000   0.2390555   0.2337334), wk =   0.0063492
        k(   28) = (   0.2000000   0.2390555   0.4674667), wk =   0.0063492
        k(   29) = (   0.2000000   0.2390555   0.7012001), wk =   0.0063492
        k(   30) = (   0.2000000   0.2390555   0.9349334), wk =   0.0063492
        k(   31) = (   0.2000000   0.4781110   0.0000000), wk =   0.0063492
        k(   32) = (   0.2000000   0.4781110   0.2337334), wk =   0.0063492
        k(   33) = (   0.2000000   0.4781110   0.4674667), wk =   0.0063492
        k(   34) = (   0.2000000   0.4781110   0.7012001), wk =   0.0063492
        k(   35) = (   0.2000000   0.4781110   0.9349334), wk =   0.0063492
        k(   36) = (   0.2000000   0.7171664   0.0000000), wk =   0.0063492
        k(   37) = (   0.2000000   0.7171664   0.2337334), wk =   0.0063492
        k(   38) = (   0.2000000   0.7171664   0.4674667), wk =   0.0063492
        k(   39) = (   0.2000000   0.7171664   0.7012001), wk =   0.0063492
        k(   40) = (   0.2000000   0.7171664   0.9349334), wk =   0.0063492
        k(   41) = (   0.4000000   0.0000000   0.0000000), wk =   0.0063492
        k(   42) = (   0.4000000   0.0000000   0.2337334), wk =   0.0063492
        k(   43) = (   0.4000000   0.0000000   0.4674667), wk =   0.0063492
        k(   44) = (   0.4000000   0.0000000   0.7012001), wk =   0.0063492
        k(   45) = (   0.4000000   0.0000000   0.9349334), wk =   0.0063492
        k(   46) = (   0.4000000   0.2390555   0.0000000), wk =   0.0063492
        k(   47) = (   0.4000000   0.2390555   0.2337334), wk =   0.0063492
        k(   48) = (   0.4000000   0.2390555   0.4674667), wk =   0.0063492
        k(   49) = (   0.4000000   0.2390555   0.7012001), wk =   0.0063492
        k(   50) = (   0.4000000   0.2390555   0.9349334), wk =   0.0063492
        k(   51) = (   0.4000000   0.4781110   0.0000000), wk =   0.0063492
        k(   52) = (   0.4000000   0.4781110   0.2337334), wk =   0.0063492
        k(   53) = (   0.4000000   0.4781110   0.4674667), wk =   0.0063492
        k(   54) = (   0.4000000   0.4781110   0.7012001), wk =   0.0063492
        k(   55) = (   0.4000000   0.4781110   0.9349334), wk =   0.0063492
        k(   56) = (   0.4000000   0.7171664   0.0000000), wk =   0.0063492
        k(   57) = (   0.4000000   0.7171664   0.2337334), wk =   0.0063492
        k(   58) = (   0.4000000   0.7171664   0.4674667), wk =   0.0063492
        k(   59) = (   0.4000000   0.7171664   0.7012001), wk =   0.0063492
        k(   60) = (   0.4000000   0.7171664   0.9349334), wk =   0.0063492
        k(   61) = (   0.0000000  -0.2390555   0.2337334), wk =   0.0063492
        k(   62) = (   0.0000000  -0.2390555   0.4674667), wk =   0.0063492
        k(   63) = (   0.0000000  -0.2390555   0.7012001), wk =   0.0063492
        k(   64) = (   0.0000000  -0.2390555   0.9349334), wk =   0.0063492
        k(   65) = (   0.0000000  -0.4781110   0.2337334), wk =   0.0063492
        k(   66) = (   0.0000000  -0.4781110   0.4674667), wk =   0.0063492
        k(   67) = (   0.0000000  -0.4781110   0.7012001), wk =   0.0063492
        k(   68) = (   0.0000000  -0.4781110   0.9349334), wk =   0.0063492
        k(   69) = (   0.0000000  -0.7171664   0.2337334), wk =   0.0063492
        k(   70) = (   0.0000000  -0.7171664   0.4674667), wk =   0.0063492
        k(   71) = (   0.0000000  -0.7171664   0.7012001), wk =   0.0063492
        k(   72) = (   0.0000000  -0.7171664   0.9349334), wk =   0.0063492
        k(   73) = (  -0.2000000   0.0000000   0.2337334), wk =   0.0063492
        k(   74) = (  -0.2000000   0.0000000   0.4674667), wk =   0.0063492
        k(   75) = (  -0.2000000   0.0000000   0.7012001), wk =   0.0063492
        k(   76) = (  -0.2000000   0.0000000   0.9349334), wk =   0.0063492
        k(   77) = (  -0.2000000   0.2390555   0.0000000), wk =   0.0063492
        k(   78) = (  -0.2000000  -0.2390555   0.2337334), wk =   0.0063492
        k(   79) = (  -0.2000000   0.2390555  -0.2337334), wk =   0.0063492
        k(   80) = (   0.2000000  -0.2390555  -0.2337334), wk =   0.0063492
        k(   81) = (  -0.2000000  -0.2390555   0.4674667), wk =   0.0063492
        k(   82) = (  -0.2000000   0.2390555  -0.4674667), wk =   0.0063492
        k(   83) = (   0.2000000  -0.2390555  -0.4674667), wk =   0.0063492
        k(   84) = (  -0.2000000  -0.2390555   0.7012001), wk =   0.0063492
        k(   85) = (  -0.2000000   0.2390555  -0.7012001), wk =   0.0063492
        k(   86) = (   0.2000000  -0.2390555  -0.7012001), wk =   0.0063492
        k(   87) = (  -0.2000000  -0.2390555   0.9349334), wk =   0.0063492
        k(   88) = (  -0.2000000   0.2390555  -0.9349334), wk =   0.0063492
        k(   89) = (   0.2000000  -0.2390555  -0.9349334), wk =   0.0063492
        k(   90) = (  -0.2000000   0.4781110   0.0000000), wk =   0.0063492
        k(   91) = (  -0.2000000  -0.4781110   0.2337334), wk =   0.0063492
        k(   92) = (  -0.2000000   0.4781110  -0.2337334), wk =   0.0063492
        k(   93) = (   0.2000000  -0.4781110  -0.2337334), wk =   0.0063492
        k(   94) = (  -0.2000000  -0.4781110   0.4674667), wk =   0.0063492
        k(   95) = (  -0.2000000   0.4781110  -0.4674667), wk =   0.0063492
        k(   96) = (   0.2000000  -0.4781110  -0.4674667), wk =   0.0063492
        k(   97) = (  -0.2000000  -0.4781110   0.7012001), wk =   0.0063492
        k(   98) = (  -0.2000000   0.4781110  -0.7012001), wk =   0.0063492
        k(   99) = (   0.2000000  -0.4781110  -0.7012001), wk =   0.0063492
        k(  100) = (  -0.2000000  -0.4781110   0.9349334), wk =   0.0063492
        k(  101) = (  -0.2000000   0.4781110  -0.9349334), wk =   0.0063492
        k(  102) = (   0.2000000  -0.4781110  -0.9349334), wk =   0.0063492
        k(  103) = (  -0.2000000   0.7171664   0.0000000), wk =   0.0063492
        k(  104) = (  -0.2000000  -0.7171664   0.2337334), wk =   0.0063492
        k(  105) = (  -0.2000000   0.7171664  -0.2337334), wk =   0.0063492
        k(  106) = (   0.2000000  -0.7171664  -0.2337334), wk =   0.0063492
        k(  107) = (  -0.2000000  -0.7171664   0.4674667), wk =   0.0063492
        k(  108) = (  -0.2000000   0.7171664  -0.4674667), wk =   0.0063492
        k(  109) = (   0.2000000  -0.7171664  -0.4674667), wk =   0.0063492
        k(  110) = (  -0.2000000  -0.7171664   0.7012001), wk =   0.0063492
        k(  111) = (  -0.2000000   0.7171664  -0.7012001), wk =   0.0063492
        k(  112) = (   0.2000000  -0.7171664  -0.7012001), wk =   0.0063492
        k(  113) = (  -0.2000000  -0.7171664   0.9349334), wk =   0.0063492
        k(  114) = (  -0.2000000   0.7171664  -0.9349334), wk =   0.0063492
        k(  115) = (   0.2000000  -0.7171664  -0.9349334), wk =   0.0063492
        k(  116) = (  -0.4000000   0.0000000   0.2337334), wk =   0.0063492
        k(  117) = (  -0.4000000   0.0000000   0.4674667), wk =   0.0063492
        k(  118) = (  -0.4000000   0.0000000   0.7012001), wk =   0.0063492
        k(  119) = (  -0.4000000   0.0000000   0.9349334), wk =   0.0063492
        k(  120) = (  -0.4000000   0.2390555   0.0000000), wk =   0.0063492
        k(  121) = (  -0.4000000  -0.2390555   0.2337334), wk =   0.0063492
        k(  122) = (  -0.4000000   0.2390555  -0.2337334), wk =   0.0063492
        k(  123) = (   0.4000000  -0.2390555  -0.2337334), wk =   0.0063492
        k(  124) = (  -0.4000000  -0.2390555   0.4674667), wk =   0.0063492
        k(  125) = (  -0.4000000   0.2390555  -0.4674667), wk =   0.0063492
        k(  126) = (   0.4000000  -0.2390555  -0.4674667), wk =   0.0063492
        k(  127) = (  -0.4000000  -0.2390555   0.7012001), wk =   0.0063492
        k(  128) = (  -0.4000000   0.2390555  -0.7012001), wk =   0.0063492
        k(  129) = (   0.4000000  -0.2390555  -0.7012001), wk =   0.0063492
        k(  130) = (  -0.4000000  -0.2390555   0.9349334), wk =   0.0063492
        k(  131) = (  -0.4000000   0.2390555  -0.9349334), wk =   0.0063492
        k(  132) = (   0.4000000  -0.2390555  -0.9349334), wk =   0.0063492
        k(  133) = (  -0.4000000   0.4781110   0.0000000), wk =   0.0063492
        k(  134) = (  -0.4000000  -0.4781110   0.2337334), wk =   0.0063492
        k(  135) = (  -0.4000000   0.4781110  -0.2337334), wk =   0.0063492
        k(  136) = (   0.4000000  -0.4781110  -0.2337334), wk =   0.0063492
        k(  137) = (  -0.4000000  -0.4781110   0.4674667), wk =   0.0063492
        k(  138) = (  -0.4000000   0.4781110  -0.4674667), wk =   0.0063492
        k(  139) = (   0.4000000  -0.4781110  -0.4674667), wk =   0.0063492
        k(  140) = (  -0.4000000  -0.4781110   0.7012001), wk =   0.0063492
        k(  141) = (  -0.4000000   0.4781110  -0.7012001), wk =   0.0063492
        k(  142) = (   0.4000000  -0.4781110  -0.7012001), wk =   0.0063492
        k(  143) = (  -0.4000000  -0.4781110   0.9349334), wk =   0.0063492
        k(  144) = (  -0.4000000   0.4781110  -0.9349334), wk =   0.0063492
        k(  145) = (   0.4000000  -0.4781110  -0.9349334), wk =   0.0063492
        k(  146) = (  -0.4000000   0.7171664   0.0000000), wk =   0.0063492
        k(  147) = (  -0.4000000  -0.7171664   0.2337334), wk =   0.0063492
        k(  148) = (  -0.4000000   0.7171664  -0.2337334), wk =   0.0063492
        k(  149) = (   0.4000000  -0.7171664  -0.2337334), wk =   0.0063492
        k(  150) = (  -0.4000000  -0.7171664   0.4674667), wk =   0.0063492
        k(  151) = (  -0.4000000   0.7171664  -0.4674667), wk =   0.0063492
        k(  152) = (   0.4000000  -0.7171664  -0.4674667), wk =   0.0063492
        k(  153) = (  -0.4000000  -0.7171664   0.7012001), wk =   0.0063492
        k(  154) = (  -0.4000000   0.7171664  -0.7012001), wk =   0.0063492
        k(  155) = (   0.4000000  -0.7171664  -0.7012001), wk =   0.0063492
        k(  156) = (  -0.4000000  -0.7171664   0.9349334), wk =   0.0063492
        k(  157) = (  -0.4000000   0.7171664  -0.9349334), wk =   0.0063492
        k(  158) = (   0.4000000  -0.7171664  -0.9349334), wk =   0.0063492

                       cryst. coord.
        k(    1) = (   0.0000000   0.0000000   0.0000000), wk =   0.0031746
        k(    2) = (   0.0000000   0.0000000   0.1111111), wk =   0.0063492
        k(    3) = (   0.0000000   0.0000000   0.2222222), wk =   0.0063492
        k(    4) = (   0.0000000   0.0000000   0.3333333), wk =   0.0063492
        k(    5) = (   0.0000000   0.0000000   0.4444444), wk =   0.0063492
        k(    6) = (   0.0000000   0.1428571   0.0000000), wk =   0.0063492
        k(    7) = (   0.0000000   0.1428571   0.1111111), wk =   0.0063492
        k(    8) = (   0.0000000   0.1428571   0.2222222), wk =   0.0063492
        k(    9) = (   0.0000000   0.1428571   0.3333333), wk =   0.0063492
        k(   10) = (   0.0000000   0.1428571   0.4444444), wk =   0.0063492
        k(   11) = (   0.0000000   0.2857143   0.0000000), wk =   0.0063492
        k(   12) = (   0.0000000   0.2857143   0.1111111), wk =   0.0063492
        k(   13) = (   0.0000000   0.2857143   0.2222222), wk =   0.0063492
        k(   14) = (   0.0000000   0.2857143   0.3333333), wk =   0.0063492
        k(   15) = (   0.0000000   0.2857143   0.4444444), wk =   0.0063492
        k(   16) = (   0.0000000   0.4285714   0.0000000), wk =   0.0063492
        k(   17) = (   0.0000000   0.4285714   0.1111111), wk =   0.0063492
        k(   18) = (   0.0000000   0.4285714   0.2222222), wk =   0.0063492
        k(   19) = (   0.0000000   0.4285714   0.3333333), wk =   0.0063492
        k(   20) = (   0.0000000   0.4285714   0.4444444), wk =   0.0063492
        k(   21) = (   0.2000000   0.0000000   0.0000000), wk =   0.0063492
        k(   22) = (   0.2000000   0.0000000   0.1111111), wk =   0.0063492
        k(   23) = (   0.2000000   0.0000000   0.2222222), wk =   0.0063492
        k(   24) = (   0.2000000   0.0000000   0.3333333), wk =   0.0063492
        k(   25) = (   0.2000000   0.0000000   0.4444444), wk =   0.0063492
        k(   26) = (   0.2000000   0.1428571   0.0000000), wk =   0.0063492
        k(   27) = (   0.2000000   0.1428571   0.1111111), wk =   0.0063492
        k(   28) = (   0.2000000   0.1428571   0.2222222), wk =   0.0063492
        k(   29) = (   0.2000000   0.1428571   0.3333333), wk =   0.0063492
        k(   30) = (   0.2000000   0.1428571   0.4444444), wk =   0.0063492
        k(   31) = (   0.2000000   0.2857143   0.0000000), wk =   0.0063492
        k(   32) = (   0.2000000   0.2857143   0.1111111), wk =   0.0063492
        k(   33) = (   0.2000000   0.2857143   0.2222222), wk =   0.0063492
        k(   34) = (   0.2000000   0.2857143   0.3333333), wk =   0.0063492
        k(   35) = (   0.2000000   0.2857143   0.4444444), wk =   0.0063492
        k(   36) = (   0.2000000   0.4285714   0.0000000), wk =   0.0063492
        k(   37) = (   0.2000000   0.4285714   0.1111111), wk =   0.0063492
        k(   38) = (   0.2000000   0.4285714   0.2222222), wk =   0.0063492
        k(   39) = (   0.2000000   0.4285714   0.3333333), wk =   0.0063492
        k(   40) = (   0.2000000   0.4285714   0.4444444), wk =   0.0063492
        k(   41) = (   0.4000000   0.0000000   0.0000000), wk =   0.0063492
        k(   42) = (   0.4000000   0.0000000   0.1111111), wk =   0.0063492
        k(   43) = (   0.4000000   0.0000000   0.2222222), wk =   0.0063492
        k(   44) = (   0.4000000   0.0000000   0.3333333), wk =   0.0063492
        k(   45) = (   0.4000000   0.0000000   0.4444444), wk =   0.0063492
        k(   46) = (   0.4000000   0.1428571   0.0000000), wk =   0.0063492
        k(   47) = (   0.4000000   0.1428571   0.1111111), wk =   0.0063492
        k(   48) = (   0.4000000   0.1428571   0.2222222), wk =   0.0063492
        k(   49) = (   0.4000000   0.1428571   0.3333333), wk =   0.0063492
        k(   50) = (   0.4000000   0.1428571   0.4444444), wk =   0.0063492
        k(   51) = (   0.4000000   0.2857143   0.0000000), wk =   0.0063492
        k(   52) = (   0.4000000   0.2857143   0.1111111), wk =   0.0063492
        k(   53) = (   0.4000000   0.2857143   0.2222222), wk =   0.0063492
        k(   54) = (   0.4000000   0.2857143   0.3333333), wk =   0.0063492
        k(   55) = (   0.4000000   0.2857143   0.4444444), wk =   0.0063492
        k(   56) = (   0.4000000   0.4285714   0.0000000), wk =   0.0063492
        k(   57) = (   0.4000000   0.4285714   0.1111111), wk =   0.0063492
        k(   58) = (   0.4000000   0.4285714   0.2222222), wk =   0.0063492
        k(   59) = (   0.4000000   0.4285714   0.3333333), wk =   0.0063492
        k(   60) = (   0.4000000   0.4285714   0.4444444), wk =   0.0063492
        k(   61) = (   0.0000000  -0.1428571   0.1111111), wk =   0.0063492
        k(   62) = (   0.0000000  -0.1428571   0.2222222), wk =   0.0063492
        k(   63) = (   0.0000000  -0.1428571   0.3333333), wk =   0.0063492
        k(   64) = (   0.0000000  -0.1428571   0.4444444), wk =   0.0063492
        k(   65) = (   0.0000000  -0.2857143   0.1111111), wk =   0.0063492
        k(   66) = (   0.0000000  -0.2857143   0.2222222), wk =   0.0063492
        k(   67) = (   0.0000000  -0.2857143   0.3333333), wk =   0.0063492
        k(   68) = (   0.0000000  -0.2857143   0.4444444), wk =   0.0063492
        k(   69) = (   0.0000000  -0.4285714   0.1111111), wk =   0.0063492
        k(   70) = (   0.0000000  -0.4285714   0.2222222), wk =   0.0063492
        k(   71) = (   0.0000000  -0.4285714   0.3333333), wk =   0.0063492
        k(   72) = (   0.0000000  -0.4285714   0.4444444), wk =   0.0063492
        k(   73) = (  -0.2000000   0.0000000   0.1111111), wk =   0.0063492
        k(   74) = (  -0.2000000   0.0000000   0.2222222), wk =   0.0063492
        k(   75) = (  -0.2000000   0.0000000   0.3333333), wk =   0.0063492
        k(   76) = (  -0.2000000   0.0000000   0.4444444), wk =   0.0063492
        k(   77) = (  -0.2000000   0.1428571   0.0000000), wk =   0.0063492
        k(   78) = (  -0.2000000  -0.1428571   0.1111111), wk =   0.0063492
        k(   79) = (  -0.2000000   0.1428571  -0.1111111), wk =   0.0063492
        k(   80) = (   0.2000000  -0.1428571  -0.1111111), wk =   0.0063492
        k(   81) = (  -0.2000000  -0.1428571   0.2222222), wk =   0.0063492
        k(   82) = (  -0.2000000   0.1428571  -0.2222222), wk =   0.0063492
        k(   83) = (   0.2000000  -0.1428571  -0.2222222), wk =   0.0063492
        k(   84) = (  -0.2000000  -0.1428571   0.3333333), wk =   0.0063492
        k(   85) = (  -0.2000000   0.1428571  -0.3333333), wk =   0.0063492
        k(   86) = (   0.2000000  -0.1428571  -0.3333333), wk =   0.0063492
        k(   87) = (  -0.2000000  -0.1428571   0.4444444), wk =   0.0063492
        k(   88) = (  -0.2000000   0.1428571  -0.4444444), wk =   0.0063492
        k(   89) = (   0.2000000  -0.1428571  -0.4444444), wk =   0.0063492
        k(   90) = (  -0.2000000   0.2857143   0.0000000), wk =   0.0063492
        k(   91) = (  -0.2000000  -0.2857143   0.1111111), wk =   0.0063492
        k(   92) = (  -0.2000000   0.2857143  -0.1111111), wk =   0.0063492
        k(   93) = (   0.2000000  -0.2857143  -0.1111111), wk =   0.0063492
        k(   94) = (  -0.2000000  -0.2857143   0.2222222), wk =   0.0063492
        k(   95) = (  -0.2000000   0.2857143  -0.2222222), wk =   0.0063492
        k(   96) = (   0.2000000  -0.2857143  -0.2222222), wk =   0.0063492
        k(   97) = (  -0.2000000  -0.2857143   0.3333333), wk =   0.0063492
        k(   98) = (  -0.2000000   0.2857143  -0.3333333), wk =   0.0063492
        k(   99) = (   0.2000000  -0.2857143  -0.3333333), wk =   0.0063492
        k(  100) = (  -0.2000000  -0.2857143   0.4444444), wk =   0.0063492
        k(  101) = (  -0.2000000   0.2857143  -0.4444444), wk =   0.0063492
        k(  102) = (   0.2000000  -0.2857143  -0.4444444), wk =   0.0063492
        k(  103) = (  -0.2000000   0.4285714   0.0000000), wk =   0.0063492
        k(  104) = (  -0.2000000  -0.4285714   0.1111111), wk =   0.0063492
        k(  105) = (  -0.2000000   0.4285714  -0.1111111), wk =   0.0063492
        k(  106) = (   0.2000000  -0.4285714  -0.1111111), wk =   0.0063492
        k(  107) = (  -0.2000000  -0.4285714   0.2222222), wk =   0.0063492
        k(  108) = (  -0.2000000   0.4285714  -0.2222222), wk =   0.0063492
        k(  109) = (   0.2000000  -0.4285714  -0.2222222), wk =   0.0063492
        k(  110) = (  -0.2000000  -0.4285714   0.3333333), wk =   0.0063492
        k(  111) = (  -0.2000000   0.4285714  -0.3333333), wk =   0.0063492
        k(  112) = (   0.2000000  -0.4285714  -0.3333333), wk =   0.0063492
        k(  113) = (  -0.2000000  -0.4285714   0.4444444), wk =   0.0063492
        k(  114) = (  -0.2000000   0.4285714  -0.4444444), wk =   0.0063492
        k(  115) = (   0.2000000  -0.4285714  -0.4444444), wk =   0.0063492
        k(  116) = (  -0.4000000   0.0000000   0.1111111), wk =   0.0063492
        k(  117) = (  -0.4000000   0.0000000   0.2222222), wk =   0.0063492
        k(  118) = (  -0.4000000   0.0000000   0.3333333), wk =   0.0063492
        k(  119) = (  -0.4000000   0.0000000   0.4444444), wk =   0.0063492
        k(  120) = (  -0.4000000   0.1428571   0.0000000), wk =   0.0063492
        k(  121) = (  -0.4000000  -0.1428571   0.1111111), wk =   0.0063492
        k(  122) = (  -0.4000000   0.1428571  -0.1111111), wk =   0.0063492
        k(  123) = (   0.4000000  -0.1428571  -0.1111111), wk =   0.0063492
        k(  124) = (  -0.4000000  -0.1428571   0.2222222), wk =   0.0063492
        k(  125) = (  -0.4000000   0.1428571  -0.2222222), wk =   0.0063492
        k(  126) = (   0.4000000  -0.1428571  -0.2222222), wk =   0.0063492
        k(  127) = (  -0.4000000  -0.1428571   0.3333333), wk =   0.0063492
        k(  128) = (  -0.4000000   0.1428571  -0.3333333), wk =   0.0063492
        k(  129) = (   0.4000000  -0.1428571  -0.3333333), wk =   0.0063492
        k(  130) = (  -0.4000000  -0.1428571   0.4444444), wk =   0.0063492
        k(  131) = (  -0.4000000   0.1428571  -0.4444444), wk =   0.0063492
        k(  132) = (   0.4000000  -0.1428571  -0.4444444), wk =   0.0063492
        k(  133) = (  -0.4000000   0.2857143   0.0000000), wk =   0.0063492
        k(  134) = (  -0.4000000  -0.2857143   0.1111111), wk =   0.0063492
        k(  135) = (  -0.4000000   0.2857143  -0.1111111), wk =   0.0063492
        k(  136) = (   0.4000000  -0.2857143  -0.1111111), wk =   0.0063492
        k(  137) = (  -0.4000000  -0.2857143   0.2222222), wk =   0.0063492
        k(  138) = (  -0.4000000   0.2857143  -0.2222222), wk =   0.0063492
        k(  139) = (   0.4000000  -0.2857143  -0.2222222), wk =   0.0063492
        k(  140) = (  -0.4000000  -0.2857143   0.3333333), wk =   0.0063492
        k(  141) = (  -0.4000000   0.2857143  -0.3333333), wk =   0.0063492
        k(  142) = (   0.4000000  -0.2857143  -0.3333333), wk =   0.0063492
        k(  143) = (  -0.4000000  -0.2857143   0.4444444), wk =   0.0063492
        k(  144) = (  -0.4000000   0.2857143  -0.4444444), wk =   0.0063492
        k(  145) = (   0.4000000  -0.2857143  -0.4444444), wk =   0.0063492
        k(  146) = (  -0.4000000   0.4285714   0.0000000), wk =   0.0063492
        k(  147) = (  -0.4000000  -0.4285714   0.1111111), wk =   0.0063492
        k(  148) = (  -0.4000000   0.4285714  -0.1111111), wk =   0.0063492
        k(  149) = (   0.4000000  -0.4285714  -0.1111111), wk =   0.0063492
        k(  150) = (  -0.4000000  -0.4285714   0.2222222), wk =   0.0063492
        k(  151) = (  -0.4000000   0.4285714  -0.2222222), wk =   0.0063492
        k(  152) = (   0.4000000  -0.4285714  -0.2222222), wk =   0.0063492
        k(  153) = (  -0.4000000  -0.4285714   0.3333333), wk =   0.0063492
        k(  154) = (  -0.4000000   0.4285714  -0.3333333), wk =   0.0063492
        k(  155) = (   0.4000000  -0.4285714  -0.3333333), wk =   0.0063492
        k(  156) = (  -0.4000000  -0.4285714   0.4444444), wk =   0.0063492
        k(  157) = (  -0.4000000   0.4285714  -0.4444444), wk =   0.0063492
        k(  158) = (   0.4000000  -0.4285714  -0.4444444), wk =   0.0063492

     Dense  grid:  1499053 G-vectors     FFT dimensions: ( 216, 135, 108)

     Smooth grid:   337887 G-vectors     FFT dimensions: ( 135,  80,  64)

     Dynamical RAM for                 wfc:       3.06 MB

     Dynamical RAM for     wfc (w. buffer):     969.95 MB

     Dynamical RAM for           str. fact:       3.81 MB

     Dynamical RAM for           local pot:       0.00 MB

     Dynamical RAM for          nlocal pot:       7.52 MB

     Dynamical RAM for                qrad:      10.54 MB

     Dynamical RAM for          rho,v,vnew:      12.39 MB

     Dynamical RAM for               rhoin:       4.13 MB

     Dynamical RAM for            rho*nmix:      30.50 MB

     Dynamical RAM for           G-vectors:       3.68 MB

     Dynamical RAM for          h,s,v(r/c):       2.38 MB

     Dynamical RAM for          <psi|beta>:       0.49 MB

     Dynamical RAM for                 psi:       6.12 MB

     Dynamical RAM for                hpsi:       6.12 MB

     Dynamical RAM for                spsi:       6.12 MB

     Dynamical RAM for      wfcinit/wfcrot:       7.78 MB

     Dynamical RAM for           addusdens:     193.47 MB

     Dynamical RAM for          addusforce:     222.19 MB

     Dynamical RAM for         addusstress:     193.00 MB

     Estimated static dynamical RAM per process >       1.03 GB

     Estimated max dynamical RAM per process >       1.25 GB

     Estimated total dynamical RAM >      29.91 GB

     Check: negative core charge=   -0.000003
     Generating pointlists ...
     new r_m :   0.0764 (alat units)  1.5777 (a.u.) for type    1
     new r_m :   0.0939 (alat units)  1.9399 (a.u.) for type    2
     new r_m :   0.0611 (alat units)  1.2608 (a.u.) for type    3
     new r_m :   0.0611 (alat units)  1.2608 (a.u.) for type    4

     Initial potential from superposition of free atoms

     starting charge  188.99132, renormalised to  189.00000
     Starting wfcs are  137 randomized atomic wfcs
     Checking if some PAW data can be deallocated... 
       PAW data deallocated on   20 nodes for type:  1
       PAW data deallocated on    8 nodes for type:  3

     total cpu time spent up to now is     1413.3 secs

     Self-consistent Calculation

     iteration #  1     ecut=   100.00 Ry     beta= 0.40
     Davidson diagonalization with overlap
     ethr =  1.00E-02,  avg # of iterations =  2.5

     negative rho (up, down):  0.000E+00 7.901E-05

     total cpu time spent up to now is     5165.4 secs

     total energy              =   -2123.57694842 Ry
     estimated scf accuracy    <       7.09745474 Ry

     total magnetization       =    19.00 Bohr mag/cell
     absolute magnetization    =    19.00 Bohr mag/cell

     iteration #  2     ecut=   100.00 Ry     beta= 0.40
     Davidson diagonalization with overlap
     ethr =  3.76E-03,  avg # of iterations =  2.0

     negative rho (up, down):  0.000E+00 3.865E-05

     total cpu time spent up to now is     8903.4 secs

     total energy              =   -2120.89458135 Ry
     estimated scf accuracy    <      33.45833783 Ry

     total magnetization       =     6.57 Bohr mag/cell
     absolute magnetization    =     6.90 Bohr mag/cell

     iteration #  3     ecut=   100.00 Ry     beta= 0.40
     Davidson diagonalization with overlap
     ethr =  3.76E-03,  avg # of iterations =  2.0

     negative rho (up, down):  0.000E+00 1.205E-04

     total cpu time spent up to now is    12049.1 secs

     total energy              =   -2125.92580263 Ry
     estimated scf accuracy    <       2.48277852 Ry

     total magnetization       =    19.03 Bohr mag/cell
     absolute magnetization    =    19.03 Bohr mag/cell

     iteration #  4     ecut=   100.00 Ry     beta= 0.40
     Davidson diagonalization with overlap
     ethr =  1.31E-03,  avg # of iterations =  1.7

     negative rho (up, down):  0.000E+00 1.357E-04

     total cpu time spent up to now is    15045.5 secs

     total energy              =   -2125.81216357 Ry
     estimated scf accuracy    <       4.63443171 Ry

     total magnetization       =    16.89 Bohr mag/cell
     absolute magnetization    =    17.01 Bohr mag/cell

     iteration #  5     ecut=   100.00 Ry     beta= 0.40
     Davidson diagonalization with overlap
     ethr =  1.31E-03,  avg # of iterations =  1.0

     negative rho (up, down):  0.000E+00 1.652E-04

     total cpu time spent up to now is    17915.7 secs

     total energy              =   -2125.95443204 Ry
     estimated scf accuracy    <       1.63842902 Ry

     total magnetization       =    19.00 Bohr mag/cell
     absolute magnetization    =    19.00 Bohr mag/cell

     iteration #  6     ecut=   100.00 Ry     beta= 0.40
     Davidson diagonalization with overlap
     ethr =  8.67E-04,  avg # of iterations =  1.0

     negative rho (up, down):  0.000E+00 2.565E-04

     total cpu time spent up to now is    20791.4 secs

     total energy              =   -2125.90404034 Ry
     estimated scf accuracy    <       1.21102414 Ry

     total magnetization       =    19.00 Bohr mag/cell
     absolute magnetization    =    19.00 Bohr mag/cell

     iteration #  7     ecut=   100.00 Ry     beta= 0.40
     Davidson diagonalization with overlap
     ethr =  6.41E-04,  avg # of iterations =  1.5

     negative rho (up, down):  0.000E+00 6.363E-04

     total cpu time spent up to now is    23753.1 secs

     total energy              =   -2125.81737159 Ry
     estimated scf accuracy    <       1.32840982 Ry

     total magnetization       =    19.00 Bohr mag/cell
     absolute magnetization    =    19.00 Bohr mag/cell

     iteration #  8     ecut=   100.00 Ry     beta= 0.40
     Davidson diagonalization with overlap
     ethr =  6.41E-04,  avg # of iterations =  1.0

     negative rho (up, down):  0.000E+00 6.665E-04

     total cpu time spent up to now is    26623.4 secs

     total energy              =   -2125.87313976 Ry
     estimated scf accuracy    <       0.36727891 Ry

     total magnetization       =    19.00 Bohr mag/cell
     absolute magnetization    =    19.01 Bohr mag/cell

     iteration #  9     ecut=   100.00 Ry     beta= 0.40
     Davidson diagonalization with overlap
     ethr =  1.94E-04,  avg # of iterations =  1.7

     negative rho (up, down):  0.000E+00 7.585E-04

     total cpu time spent up to now is    29595.0 secs

     total energy              =   -2125.86494806 Ry
     estimated scf accuracy    <       0.28271556 Ry

     total magnetization       =    19.00 Bohr mag/cell
     absolute magnetization    =    19.01 Bohr mag/cell

     iteration # 10     ecut=   100.00 Ry     beta= 0.40
     Davidson diagonalization with overlap
     ethr =  1.50E-04,  avg # of iterations =  1.9

     negative rho (up, down):  0.000E+00 8.808E-04

     total cpu time spent up to now is    32568.8 secs

     total energy              =   -2125.87690097 Ry
     estimated scf accuracy    <       0.15965846 Ry

     total magnetization       =    19.00 Bohr mag/cell
     absolute magnetization    =    19.02 Bohr mag/cell

     iteration # 11     ecut=   100.00 Ry     beta= 0.40
     Davidson diagonalization with overlap
     c_bands:  2 eigenvalues not converged
     c_bands:  2 eigenvalues not converged
     c_bands:  1 eigenvalues not converged
     c_bands:  1 eigenvalues not converged
     c_bands:  1 eigenvalues not converged
     c_bands:  1 eigenvalues not converged
     c_bands:  1 eigenvalues not converged
     c_bands:  2 eigenvalues not converged
     c_bands:  1 eigenvalues not converged
     c_bands:  1 eigenvalues not converged
     c_bands:  2 eigenvalues not converged
     c_bands:  1 eigenvalues not converged
     c_bands:  1 eigenvalues not converged
     c_bands:  1 eigenvalues not converged
     c_bands:  1 eigenvalues not converged
     c_bands:  1 eigenvalues not converged
     c_bands:  1 eigenvalues not converged
     c_bands:  1 eigenvalues not converged
     c_bands:  1 eigenvalues not converged
     ethr =  8.45E-05,  avg # of iterations = 10.3

     negative rho (up, down):  0.000E+00 8.783E-04

     total cpu time spent up to now is    36484.5 secs

     total energy              =   -2125.87849380 Ry
     estimated scf accuracy    <       0.37464442 Ry

     total magnetization       =    19.00 Bohr mag/cell
     absolute magnetization    =    19.03 Bohr mag/cell

     iteration # 12     ecut=   100.00 Ry     beta= 0.40
     Davidson diagonalization with overlap
     ethr =  8.45E-05,  avg # of iterations =  1.1

     negative rho (up, down):  0.000E+00 9.795E-04

     total cpu time spent up to now is    39364.6 secs

     total energy              =   -2125.88192206 Ry
     estimated scf accuracy    <       0.08712754 Ry

     total magnetization       =    19.00 Bohr mag/cell
     absolute magnetization    =    19.03 Bohr mag/cell

     iteration # 13     ecut=   100.00 Ry     beta= 0.40
     Davidson diagonalization with overlap
     c_bands:  1 eigenvalues not converged
     c_bands:  1 eigenvalues not converged
     c_bands:  1 eigenvalues not converged
     c_bands:  2 eigenvalues not converged
     c_bands:  3 eigenvalues not converged
     ethr =  4.61E-05,  avg # of iterations =  2.5

     negative rho (up, down):  0.000E+00 9.948E-04

     total cpu time spent up to now is    42432.1 secs

     total energy              =   -2125.88308937 Ry
     estimated scf accuracy    <       0.04112477 Ry

     total magnetization       =    19.00 Bohr mag/cell
     absolute magnetization    =    19.04 Bohr mag/cell

     iteration # 14     ecut=   100.00 Ry     beta= 0.40
     Davidson diagonalization with overlap
     c_bands:  1 eigenvalues not converged
     c_bands:  1 eigenvalues not converged
     c_bands:  1 eigenvalues not converged
     c_bands:  1 eigenvalues not converged
     c_bands:  1 eigenvalues not converged
     c_bands:  1 eigenvalues not converged
     c_bands:  1 eigenvalues not converged
     c_bands:  1 eigenvalues not converged
     c_bands:  1 eigenvalues not converged
     c_bands:  2 eigenvalues not converged
     c_bands:  1 eigenvalues not converged
     c_bands:  1 eigenvalues not converged
     c_bands:  1 eigenvalues not converged
     c_bands:  1 eigenvalues not converged
     c_bands:  1 eigenvalues not converged
     c_bands:  1 eigenvalues not converged
     c_bands:  1 eigenvalues not converged
     c_bands:  1 eigenvalues not converged
     c_bands:  1 eigenvalues not converged
     c_bands:  1 eigenvalues not converged
     c_bands:  2 eigenvalues not converged
     c_bands:  1 eigenvalues not converged
     c_bands:  1 eigenvalues not converged
     c_bands:  1 eigenvalues not converged
     c_bands:  1 eigenvalues not converged
     c_bands:  1 eigenvalues not converged
     ethr =  2.18E-05,  avg # of iterations =  8.6

     negative rho (up, down):  0.000E+00 1.001E-03

     total cpu time spent up to now is    46194.3 secs

     total energy              =   -2125.88329828 Ry
     estimated scf accuracy    <       0.03517155 Ry

     total magnetization       =    19.00 Bohr mag/cell
     absolute magnetization    =    19.05 Bohr mag/cell

     iteration # 15     ecut=   100.00 Ry     beta= 0.40
     Davidson diagonalization with overlap
     ethr =  1.86E-05,  avg # of iterations =  1.5

     negative rho (up, down):  0.000E+00 1.001E-03

     total cpu time spent up to now is    49115.2 secs

     total energy              =   -2125.88342299 Ry
     estimated scf accuracy    <       0.01321970 Ry

     total magnetization       =    19.00 Bohr mag/cell
     absolute magnetization    =    19.05 Bohr mag/cell

     iteration # 16     ecut=   100.00 Ry     beta= 0.40
     Davidson diagonalization with overlap
     c_bands:  1 eigenvalues not converged
     c_bands:  1 eigenvalues not converged
     c_bands:  1 eigenvalues not converged
     c_bands:  1 eigenvalues not converged
     c_bands:  1 eigenvalues not converged
     c_bands:  1 eigenvalues not converged
     c_bands:  1 eigenvalues not converged
     c_bands:  1 eigenvalues not converged
     c_bands:  1 eigenvalues not converged
     c_bands:  1 eigenvalues not converged
     c_bands:  1 eigenvalues not converged
     c_bands:  3 eigenvalues not converged
     c_bands:  1 eigenvalues not converged
     c_bands:  1 eigenvalues not converged
     c_bands:  1 eigenvalues not converged
     c_bands:  3 eigenvalues not converged
     c_bands:  1 eigenvalues not converged
     c_bands:  2 eigenvalues not converged
     c_bands:  1 eigenvalues not converged
     c_bands:  1 eigenvalues not converged
     c_bands:  1 eigenvalues not converged
     c_bands:  1 eigenvalues not converged
     c_bands:  1 eigenvalues not converged
     c_bands:  1 eigenvalues not converged
     c_bands:  1 eigenvalues not converged
     c_bands:  1 eigenvalues not converged
     c_bands:  1 eigenvalues not converged
     c_bands:  1 eigenvalues not converged
     c_bands:  1 eigenvalues not converged
     c_bands:  2 eigenvalues not converged
     ethr =  6.99E-06,  avg # of iterations =  8.8

     negative rho (up, down):  0.000E+00 9.976E-04

     total cpu time spent up to now is    52867.7 secs

     total energy              =   -2125.88360974 Ry
     estimated scf accuracy    <       0.00367192 Ry

     total magnetization       =    19.00 Bohr mag/cell
     absolute magnetization    =    19.05 Bohr mag/cell

     iteration # 17     ecut=   100.00 Ry     beta= 0.40
     Davidson diagonalization with overlap
     c_bands:  1 eigenvalues not converged
     c_bands:  2 eigenvalues not converged
     c_bands:  1 eigenvalues not converged
     c_bands:  1 eigenvalues not converged
     c_bands:  1 eigenvalues not converged
     c_bands:  1 eigenvalues not converged
     c_bands:  1 eigenvalues not converged
     c_bands:  1 eigenvalues not converged
     c_bands:  1 eigenvalues not converged
     c_bands:  1 eigenvalues not converged
     c_bands:  1 eigenvalues not converged
     c_bands:  1 eigenvalues not converged
     c_bands:  1 eigenvalues not converged
     c_bands:  1 eigenvalues not converged
     c_bands:  1 eigenvalues not converged
     c_bands:  1 eigenvalues not converged
     c_bands:  1 eigenvalues not converged
     c_bands:  1 eigenvalues not converged
     c_bands:  1 eigenvalues not converged
     c_bands:  1 eigenvalues not converged
     c_bands:  1 eigenvalues not converged
     c_bands:  1 eigenvalues not converged
     c_bands:  1 eigenvalues not converged
     c_bands:  1 eigenvalues not converged
     c_bands:  1 eigenvalues not converged
     c_bands:  1 eigenvalues not converged
     c_bands:  1 eigenvalues not converged
     c_bands:  2 eigenvalues not converged
     c_bands:  1 eigenvalues not converged
     c_bands:  1 eigenvalues not converged
     c_bands:  1 eigenvalues not converged
     c_bands:  1 eigenvalues not converged
     c_bands:  2 eigenvalues not converged
     c_bands:  1 eigenvalues not converged
     c_bands:  1 eigenvalues not converged
     c_bands:  1 eigenvalues not converged
     ethr =  1.94E-06,  avg # of iterations = 10.5

     negative rho (up, down):  0.000E+00 9.948E-04

     total cpu time spent up to now is    56893.2 secs

     total energy              =   -2125.88370569 Ry
     estimated scf accuracy    <       0.00224084 Ry

     total magnetization       =    19.00 Bohr mag/cell
     absolute magnetization    =    19.05 Bohr mag/cell

     iteration # 18     ecut=   100.00 Ry     beta= 0.40
     Davidson diagonalization with overlap
     c_bands:  1 eigenvalues not converged
     ethr =  1.19E-06,  avg # of iterations =  2.0

     negative rho (up, down):  0.000E+00 9.882E-04

     total cpu time spent up to now is    59878.4 secs

     total energy              =   -2125.88380885 Ry
     estimated scf accuracy    <       0.00031053 Ry

     total magnetization       =    19.00 Bohr mag/cell
     absolute magnetization    =    19.06 Bohr mag/cell

     iteration # 19     ecut=   100.00 Ry     beta= 0.40
     Davidson diagonalization with overlap
     ethr =  1.64E-07,  avg # of iterations =  4.5

     negative rho (up, down):  0.000E+00 9.844E-04

     total cpu time spent up to now is    63883.6 secs

     total energy              =   -2125.88391394 Ry
     estimated scf accuracy    <       0.00006394 Ry

     total magnetization       =    19.00 Bohr mag/cell
     absolute magnetization    =    19.06 Bohr mag/cell

     iteration # 20     ecut=   100.00 Ry     beta= 0.40
     Davidson diagonalization with overlap
     ethr =  3.38E-08,  avg # of iterations =  3.0

     negative rho (up, down):  0.000E+00 9.823E-04

     total cpu time spent up to now is    67568.8 secs

     total energy              =   -2125.88393373 Ry
     estimated scf accuracy    <       0.00002713 Ry

     total magnetization       =    19.00 Bohr mag/cell
     absolute magnetization    =    19.06 Bohr mag/cell

     iteration # 21     ecut=   100.00 Ry     beta= 0.40
     Davidson diagonalization with overlap
     ethr =  1.44E-08,  avg # of iterations =  2.0

     negative rho (up, down):  0.000E+00 9.815E-04

     total cpu time spent up to now is    70633.4 secs

     total energy              =   -2125.88393784 Ry
     estimated scf accuracy    <       0.00001087 Ry

     total magnetization       =    19.00 Bohr mag/cell
     absolute magnetization    =    19.06 Bohr mag/cell

     iteration # 22     ecut=   100.00 Ry     beta= 0.40
     Davidson diagonalization with overlap
     ethr =  5.75E-09,  avg # of iterations =  2.1

     negative rho (up, down):  0.000E+00 9.820E-04

     total cpu time spent up to now is    73763.5 secs

     total energy              =   -2125.88394071 Ry
     estimated scf accuracy    <       0.00000712 Ry

     total magnetization       =    19.00 Bohr mag/cell
     absolute magnetization    =    19.06 Bohr mag/cell

     iteration # 23     ecut=   100.00 Ry     beta= 0.40
     Davidson diagonalization with overlap
     ethr =  3.77E-09,  avg # of iterations =  1.0

     negative rho (up, down):  0.000E+00 9.822E-04

     total cpu time spent up to now is    76644.5 secs

     total energy              =   -2125.88394133 Ry
     estimated scf accuracy    <       0.00001861 Ry

     total magnetization       =    19.00 Bohr mag/cell
     absolute magnetization    =    19.06 Bohr mag/cell

     iteration # 24     ecut=   100.00 Ry     beta= 0.40
     Davidson diagonalization with overlap
     ethr =  3.77E-09,  avg # of iterations =  1.5

     negative rho (up, down):  0.000E+00 9.832E-04

     total cpu time spent up to now is    79600.0 secs

     total energy              =   -2125.88394218 Ry
     estimated scf accuracy    <       0.00000066 Ry

     total magnetization       =    19.00 Bohr mag/cell
     absolute magnetization    =    19.06 Bohr mag/cell

     iteration # 25     ecut=   100.00 Ry     beta= 0.40
     Davidson diagonalization with overlap
     ethr =  3.50E-10,  avg # of iterations =  3.7

     negative rho (up, down):  0.000E+00 9.833E-04

     total cpu time spent up to now is    83558.5 secs

     total energy              =   -2125.88394256 Ry
     estimated scf accuracy    <       0.00000088 Ry

     total magnetization       =    19.00 Bohr mag/cell
     absolute magnetization    =    19.06 Bohr mag/cell

     iteration # 26     ecut=   100.00 Ry     beta= 0.40
     Davidson diagonalization with overlap
     ethr =  3.50E-10,  avg # of iterations =  1.0

     negative rho (up, down):  0.000E+00 9.833E-04

     total cpu time spent up to now is    86435.1 secs

     total energy              =   -2125.88394262 Ry
     estimated scf accuracy    <       0.00000022 Ry

     total magnetization       =    19.00 Bohr mag/cell
     absolute magnetization    =    19.06 Bohr mag/cell

     iteration # 27     ecut=   100.00 Ry     beta= 0.40
     Davidson diagonalization with overlap
     ethr =  1.15E-10,  avg # of iterations =  1.5

     negative rho (up, down):  0.000E+00 9.834E-04

     total cpu time spent up to now is    89387.6 secs

     total energy              =   -2125.88394265 Ry
     estimated scf accuracy    <       0.00000021 Ry

     total magnetization       =    19.00 Bohr mag/cell
     absolute magnetization    =    19.06 Bohr mag/cell

     iteration # 28     ecut=   100.00 Ry     beta= 0.40
     Davidson diagonalization with overlap
     ethr =  1.10E-10,  avg # of iterations =  1.0

     negative rho (up, down):  0.000E+00 9.833E-04

     total cpu time spent up to now is    92267.0 secs

     total energy              =   -2125.88394267 Ry
     estimated scf accuracy    <       0.00000027 Ry

     total magnetization       =    19.00 Bohr mag/cell
     absolute magnetization    =    19.06 Bohr mag/cell

     iteration # 29     ecut=   100.00 Ry     beta= 0.40
     Davidson diagonalization with overlap
     ethr =  1.10E-10,  avg # of iterations =  2.0

     negative rho (up, down):  0.000E+00 9.833E-04

     total cpu time spent up to now is    95316.2 secs

     total energy              =   -2125.88394270 Ry
     estimated scf accuracy    <       0.00000008 Ry

     total magnetization       =    19.00 Bohr mag/cell
     absolute magnetization    =    19.06 Bohr mag/cell

     iteration # 30     ecut=   100.00 Ry     beta= 0.40
     Davidson diagonalization with overlap
     ethr =  4.06E-11,  avg # of iterations =  1.9

     negative rho (up, down):  0.000E+00 9.833E-04

     total cpu time spent up to now is    98349.0 secs

     total energy              =   -2125.88394270 Ry
     estimated scf accuracy    <       0.00000003 Ry

     total magnetization       =    19.00 Bohr mag/cell
     absolute magnetization    =    19.06 Bohr mag/cell

     iteration # 31     ecut=   100.00 Ry     beta= 0.40
     Davidson diagonalization with overlap
     ethr =  1.51E-11,  avg # of iterations =  3.2

     negative rho (up, down):  0.000E+00 9.832E-04

     total cpu time spent up to now is   101593.8 secs

     total energy              =   -2125.88394271 Ry
     estimated scf accuracy    <       0.00000002 Ry

     total magnetization       =    19.00 Bohr mag/cell
     absolute magnetization    =    19.06 Bohr mag/cell

     iteration # 32     ecut=   100.00 Ry     beta= 0.40
     Davidson diagonalization with overlap
     ethr =  1.08E-11,  avg # of iterations =  2.0

     negative rho (up, down):  0.000E+00 9.833E-04

     total cpu time spent up to now is   104756.8 secs

     total energy              =   -2125.88394272 Ry
     estimated scf accuracy    <          8.1E-09 Ry

     total magnetization       =    19.00 Bohr mag/cell
     absolute magnetization    =    19.06 Bohr mag/cell

     iteration # 33     ecut=   100.00 Ry     beta= 0.40
     Davidson diagonalization with overlap
     ethr =  4.30E-12,  avg # of iterations =  2.6

     negative rho (up, down):  0.000E+00 9.832E-04

     total cpu time spent up to now is   107937.2 secs

     total energy              =   -2125.88394272 Ry
     estimated scf accuracy    <       0.00000002 Ry

     total magnetization       =    19.00 Bohr mag/cell
     absolute magnetization    =    19.06 Bohr mag/cell

     iteration # 34     ecut=   100.00 Ry     beta= 0.40
     Davidson diagonalization with overlap
     ethr =  4.30E-12,  avg # of iterations =  2.0

     negative rho (up, down):  0.000E+00 9.833E-04

     total cpu time spent up to now is   111061.8 secs

     total energy              =   -2125.88394272 Ry
     estimated scf accuracy    <          8.9E-09 Ry

     total magnetization       =    19.00 Bohr mag/cell
     absolute magnetization    =    19.06 Bohr mag/cell

     iteration # 35     ecut=   100.00 Ry     beta= 0.40
     Davidson diagonalization with overlap
     ethr =  4.30E-12,  avg # of iterations =  1.0

     negative rho (up, down):  0.000E+00 9.833E-04

     total cpu time spent up to now is   113943.5 secs

     total energy              =   -2125.88394272 Ry
     estimated scf accuracy    <          3.9E-10 Ry

     total magnetization       =    19.00 Bohr mag/cell
     absolute magnetization    =    19.06 Bohr mag/cell

     iteration # 36     ecut=   100.00 Ry     beta= 0.40
     Davidson diagonalization with overlap
     ethr =  2.09E-13,  avg # of iterations =  5.0

     negative rho (up, down):  0.000E+00 9.833E-04

     total cpu time spent up to now is   118870.9 secs

     total energy              =   -2125.88394272 Ry
     estimated scf accuracy    <          7.9E-10 Ry

     total magnetization       =    19.00 Bohr mag/cell
     absolute magnetization    =    19.06 Bohr mag/cell

     iteration # 37     ecut=   100.00 Ry     beta= 0.40
     Davidson diagonalization with overlap
     ethr =  2.09E-13,  avg # of iterations =  2.0

     negative rho (up, down):  0.000E+00 9.833E-04

     Magnetic moment per site:
     atom:    1    charge:    7.9999    magn:    0.0006    constr:    0.0000
     atom:    2    charge:   13.0800    magn:    3.6950    constr:    0.0000
     atom:    3    charge:   13.0752    magn:    3.7119    constr:    0.0000
     atom:    4    charge:   13.0800    magn:    3.6950    constr:    0.0000
     atom:    5    charge:   13.0752    magn:    3.7119    constr:    0.0000
     atom:    6    charge:    0.9465    magn:    0.0069    constr:    0.0000
     atom:    7    charge:    0.9453    magn:    0.0091    constr:    0.0000
     atom:    8    charge:    0.9465    magn:    0.0069    constr:    0.0000
     atom:    9    charge:    0.9453    magn:    0.0091    constr:    0.0000
     atom:   10    charge:    4.4596    magn:    0.0908    constr:    0.0000
     atom:   11    charge:    4.4546    magn:    0.1467    constr:    0.0000
     atom:   12    charge:    4.4595    magn:    0.0908    constr:    0.0000
     atom:   13    charge:    4.4547    magn:    0.1467    constr:    0.0000
     atom:   14    charge:    4.4505    magn:    0.1502    constr:    0.0000
     atom:   15    charge:    4.4493    magn:    0.1010    constr:    0.0000
     atom:   16    charge:    4.4505    magn:    0.1502    constr:    0.0000
     atom:   17    charge:    4.4493    magn:    0.1010    constr:    0.0000
     atom:   18    charge:    4.4326    magn:    0.1226    constr:    0.0000
     atom:   19    charge:    4.4285    magn:    0.1493    constr:    0.0000
     atom:   20    charge:    4.4333    magn:    0.1369    constr:    0.0000
     atom:   21    charge:    4.4296    magn:    0.1584    constr:    0.0000
     atom:   22    charge:    4.4326    magn:    0.1226    constr:    0.0000
     atom:   23    charge:    4.4285    magn:    0.1493    constr:    0.0000
     atom:   24    charge:    4.4332    magn:    0.1369    constr:    0.0000
     atom:   25    charge:    4.4296    magn:    0.1584    constr:    0.0000

     total cpu time spent up to now is   121906.8 secs

     End of self-consistent calculation

 ------ SPIN UP ------------


          k = 0.0000 0.0000 0.0000 ( 42261 PWs)   bands (ev):

   -87.0376 -87.0375 -86.9577 -86.9577 -53.1473 -53.1473 -53.1404 -53.1404
   -53.0026 -53.0025 -52.9120 -52.9119 -52.8581 -52.8581 -52.8329 -52.8329
   -46.3238 -18.2872 -18.2809 -18.2476 -16.6888 -16.5193 -16.5076 -16.3925
   -14.6705 -14.6288 -14.5991 -14.5568 -14.4638 -14.4581 -14.4474 -14.4284
   -14.4042 -14.3970 -14.2787 -14.2650  -5.3641  -5.0006  -4.9529  -4.6864
    -3.1299  -2.8933  -2.8154  -2.6802  -2.4404  -2.3814  -2.3245  -2.2456
    -2.1153  -2.0785  -1.7543  -1.4901  -1.4290  -1.3814  -1.0677  -1.0399
    -0.8941  -0.8539  -0.7343  -0.6243  -0.5947  -0.5600  -0.4477  -0.3790
    -0.3717  -0.2933  -0.2506  -0.1658   0.2242   0.2897   0.3743   0.4602
     0.4873   0.6249   0.6519   0.6744   0.7328   0.8739   0.9332   1.0228
     1.0657   1.1324   1.2422   1.2763   1.3171   1.4827   1.5561   1.5807
     1.6472   1.7971   1.8389   1.8776   1.8947   2.1191   2.2293   2.2805
     2.3775   2.3963   2.4343   2.4551   2.5803   2.6191   2.8690   2.9615
     6.4405   8.3044   8.9285   9.1548   9.5744  10.0257  10.3061  10.6849
    10.8574  11.0441

     occupation numbers 
     1.0000   1.0000   1.0000   1.0000   1.0000   1.0000   1.0000   1.0000
     1.0000   1.0000   1.0000   1.0000   1.0000   1.0000   1.0000   1.0000
     1.0000   1.0000   1.0000   1.0000   1.0000   1.0000   1.0000   1.0000
     1.0000   1.0000   1.0000   1.0000   1.0000   1.0000   1.0000   1.0000
     1.0000   1.0000   1.0000   1.0000   1.0000   1.0000   1.0000   1.0000
     1.0000   1.0000   1.0000   1.0000   1.0000   1.0000   1.0000   1.0000
     1.0000   1.0000   1.0000   1.0000   1.0000   1.0000   1.0000   1.0000
     1.0000   1.0000   1.0000   1.0000   1.0000   1.0000   1.0000   1.0000
     1.0000   1.0000   1.0000   1.0000   1.0000   1.0000   1.0000   1.0000
     1.0000   1.0000   1.0000   1.0000   1.0000   1.0000   1.0000   1.0000
     1.0000   1.0000   1.0000   1.0000   1.0000   1.0000   1.0000   1.0000
     1.0000   1.0000   1.0000   1.0000   1.0000   1.0000   1.0000   1.0000
     1.0000   1.0000   1.0000   1.0000   1.0000   1.0000   1.0000   1.0000
     0.0000   0.0000   0.0000   0.0000   0.0000   0.0000   0.0000   0.0000
     0.0000   0.0000

          k = 0.0000 0.0000 0.2337 ( 42279 PWs)   bands (ev):

   -87.0376 -87.0375 -86.9577 -86.9577 -53.1473 -53.1473 -53.1404 -53.1404
   -53.0026 -53.0025 -52.9120 -52.9119 -52.8581 -52.8581 -52.8329 -52.8329
   -46.3238 -18.2872 -18.2808 -18.2481 -16.6769 -16.5121 -16.5050 -16.3915
   -14.6762 -14.6383 -14.6074 -14.5622 -14.4682 -14.4598 -14.4513 -14.4302
   -14.3995 -14.3926 -14.2820 -14.2692  -5.3460  -4.9989  -4.9499  -4.6946
    -3.0938  -2.8716  -2.8100  -2.6690  -2.4425  -2.3878  -2.3121  -2.2131
    -2.1048  -2.0494  -1.7910  -1.4966  -1.4402  -1.3628  -1.0579  -1.0136
    -0.8970  -0.8188  -0.7360  -0.6179  -0.6025  -0.5668  -0.4486  -0.4102
    -0.3470  -0.2900  -0.2533  -0.1668   0.1469   0.2445   0.3693   0.3925
     0.4733   0.6108   0.6374   0.6628   0.7582   0.8042   1.0003   1.0428
     1.0771   1.1323   1.2474   1.3042   1.3242   1.4160   1.5367   1.5869
     1.6356   1.7579   1.8222   1.8941   1.8980   2.1448   2.2278   2.2894
     2.3797   2.3970   2.4537   2.4713   2.5819   2.6282   2.8493   2.9441
     6.5821   8.3878   8.9387   9.1729   9.5997   9.9867  10.2790  10.6842
    10.7914  11.0335

     occupation numbers 
     1.0000   1.0000   1.0000   1.0000   1.0000   1.0000   1.0000   1.0000
     1.0000   1.0000   1.0000   1.0000   1.0000   1.0000   1.0000   1.0000
     1.0000   1.0000   1.0000   1.0000   1.0000   1.0000   1.0000   1.0000
     1.0000   1.0000   1.0000   1.0000   1.0000   1.0000   1.0000   1.0000
     1.0000   1.0000   1.0000   1.0000   1.0000   1.0000   1.0000   1.0000
     1.0000   1.0000   1.0000   1.0000   1.0000   1.0000   1.0000   1.0000
     1.0000   1.0000   1.0000   1.0000   1.0000   1.0000   1.0000   1.0000
     1.0000   1.0000   1.0000   1.0000   1.0000   1.0000   1.0000   1.0000
     1.0000   1.0000   1.0000   1.0000   1.0000   1.0000   1.0000   1.0000
     1.0000   1.0000   1.0000   1.0000   1.0000   1.0000   1.0000   1.0000
     1.0000   1.0000   1.0000   1.0000   1.0000   1.0000   1.0000   1.0000
     1.0000   1.0000   1.0000   1.0000   1.0000   1.0000   1.0000   1.0000
     1.0000   1.0000   1.0000   1.0000   1.0000   1.0000   1.0000   1.0000
     0.0000   0.0000   0.0000   0.0000   0.0000   0.0000   0.0000   0.0000
     0.0000   0.0000

          k = 0.0000 0.0000 0.4675 ( 42247 PWs)   bands (ev):

   -87.0376 -87.0375 -86.9577 -86.9577 -53.1473 -53.1473 -53.1404 -53.1404
   -53.0026 -53.0025 -52.9120 -52.9119 -52.8581 -52.8581 -52.8329 -52.8329
   -46.3238 -18.2873 -18.2807 -18.2489 -16.6444 -16.5038 -16.4885 -16.3904
   -14.6919 -14.6613 -14.6280 -14.5814 -14.4815 -14.4627 -14.4541 -14.4334
   -14.3872 -14.3816 -14.2918 -14.2810  -5.2941  -4.9966  -4.9423  -4.7235
    -2.9961  -2.8173  -2.7915  -2.6544  -2.4418  -2.3738  -2.3081  -2.1280
    -2.0504  -1.9805  -1.8859  -1.5876  -1.3826  -1.3040  -1.0171  -0.9644
    -0.8762  -0.7468  -0.7358  -0.6331  -0.6126  -0.5866  -0.4530  -0.4339
    -0.3372  -0.2855  -0.2517  -0.1764  -0.0031   0.1671   0.2286   0.3312
     0.4403   0.4759   0.5941   0.6384   0.7122   0.8833   0.9852   1.0531
     1.0795   1.2191   1.2406   1.2566   1.3106   1.3741   1.4291   1.5545
     1.6608   1.7425   1.8320   1.9281   1.9622   2.1322   2.2304   2.3496
     2.3867   2.4138   2.4916   2.5135   2.5772   2.6480   2.7888   2.8925
     6.9578   8.6173   8.9336   9.2188   9.6960   9.8977  10.1976  10.6028
    10.6862  10.9652

     occupation numbers 
     1.0000   1.0000   1.0000   1.0000   1.0000   1.0000   1.0000   1.0000
     1.0000   1.0000   1.0000   1.0000   1.0000   1.0000   1.0000   1.0000
     1.0000   1.0000   1.0000   1.0000   1.0000   1.0000   1.0000   1.0000
     1.0000   1.0000   1.0000   1.0000   1.0000   1.0000   1.0000   1.0000
     1.0000   1.0000   1.0000   1.0000   1.0000   1.0000   1.0000   1.0000
     1.0000   1.0000   1.0000   1.0000   1.0000   1.0000   1.0000   1.0000
     1.0000   1.0000   1.0000   1.0000   1.0000   1.0000   1.0000   1.0000
     1.0000   1.0000   1.0000   1.0000   1.0000   1.0000   1.0000   1.0000
     1.0000   1.0000   1.0000   1.0000   1.0000   1.0000   1.0000   1.0000
     1.0000   1.0000   1.0000   1.0000   1.0000   1.0000   1.0000   1.0000
     1.0000   1.0000   1.0000   1.0000   1.0000   1.0000   1.0000   1.0000
     1.0000   1.0000   1.0000   1.0000   1.0000   1.0000   1.0000   1.0000
     1.0000   1.0000   1.0000   1.0000   1.0000   1.0000   1.0000   1.0000
     0.0000   0.0000   0.0000   0.0000   0.0000   0.0000   0.0000   0.0000
     0.0000   0.0000

          k = 0.0000 0.0000 0.7012 ( 42239 PWs)   bands (ev):

   -87.0376 -87.0375 -86.9577 -86.9577 -53.1473 -53.1473 -53.1404 -53.1404
   -53.0026 -53.0025 -52.9120 -52.9119 -52.8581 -52.8581 -52.8329 -52.8329
   -46.3238 -18.2875 -18.2809 -18.2493 -16.6000 -16.5062 -16.4596 -16.3933
   -14.7116 -14.6866 -14.6500 -14.6123 -14.4895 -14.4734 -14.4506 -14.4340
   -14.3700 -14.3661 -14.3069 -14.2987  -5.2160  -5.0072  -4.9271  -4.7753
    -2.8774  -2.7650  -2.7525  -2.6551  -2.4264  -2.3312  -2.3043  -2.0755
    -2.0015  -1.9212  -1.8940  -1.7157  -1.2680  -1.1905  -0.9519  -0.9106
    -0.8337  -0.7481  -0.6960  -0.6636  -0.6386  -0.6089  -0.4716  -0.4186
    -0.3772  -0.2751  -0.2323  -0.2073  -0.1341   0.0405   0.0952   0.1329
     0.3191   0.4968   0.5666   0.5986   0.6942   0.9124   0.9915   0.9980
     1.0718   1.0988   1.1920   1.2757   1.2901   1.3368   1.3588   1.4988
     1.7274   1.8023   1.8571   2.0517   2.0669   2.1119   2.2417   2.3871
     2.4239   2.4443   2.5316   2.5434   2.5801   2.6556   2.6907   2.8121
     7.4659   8.8107   8.9447   9.3004   9.7578   9.8517  10.0908  10.4708
    10.6071  10.7936

     occupation numbers 
     1.0000   1.0000   1.0000   1.0000   1.0000   1.0000   1.0000   1.0000
     1.0000   1.0000   1.0000   1.0000   1.0000   1.0000   1.0000   1.0000
     1.0000   1.0000   1.0000   1.0000   1.0000   1.0000   1.0000   1.0000
     1.0000   1.0000   1.0000   1.0000   1.0000   1.0000   1.0000   1.0000
     1.0000   1.0000   1.0000   1.0000   1.0000   1.0000   1.0000   1.0000
     1.0000   1.0000   1.0000   1.0000   1.0000   1.0000   1.0000   1.0000
     1.0000   1.0000   1.0000   1.0000   1.0000   1.0000   1.0000   1.0000
     1.0000   1.0000   1.0000   1.0000   1.0000   1.0000   1.0000   1.0000
     1.0000   1.0000   1.0000   1.0000   1.0000   1.0000   1.0000   1.0000
     1.0000   1.0000   1.0000   1.0000   1.0000   1.0000   1.0000   1.0000
     1.0000   1.0000   1.0000   1.0000   1.0000   1.0000   1.0000   1.0000
     1.0000   1.0000   1.0000   1.0000   1.0000   1.0000   1.0000   1.0000
     1.0000   1.0000   1.0000   1.0000   1.0000   1.0000   1.0000   1.0000
     0.0000   0.0000   0.0000   0.0000   0.0000   0.0000   0.0000   0.0000
     0.0000   0.0000

          k = 0.0000 0.0000 0.9349 ( 42234 PWs)   bands (ev):

   -87.0376 -87.0375 -86.9577 -86.9577 -53.1473 -53.1473 -53.1404 -53.1404
   -53.0026 -53.0025 -52.9120 -52.9119 -52.8581 -52.8581 -52.8329 -52.8329
   -46.3238 -18.2878 -18.2812 -18.2493 -16.5558 -16.5225 -16.4319 -16.4038
   -14.7250 -14.7032 -14.6617 -14.6382 -14.4920 -14.4798 -14.4501 -14.4323
   -14.3508 -14.3480 -14.3254 -14.3181  -5.1271  -5.0500  -4.8962  -4.8356
    -2.7952  -2.7565  -2.7074  -2.6544  -2.3914  -2.3217  -2.2562  -2.1540
    -1.9655  -1.8621  -1.8319  -1.8042  -1.1029  -1.0146  -0.9015  -0.8799
    -0.8422  -0.8211  -0.7512  -0.7103  -0.6484  -0.5299  -0.5166  -0.4352
    -0.3915  -0.2725  -0.2515  -0.2432  -0.1759  -0.0947  -0.0405   0.0130
     0.3344   0.5025   0.5562   0.6056   0.6888   0.8116   0.9397   0.9685
     1.0321   1.1052   1.1729   1.2154   1.2801   1.3282   1.3422   1.4854
     1.7511   1.8672   1.8724   2.0027   2.2295   2.2702   2.2789   2.3923
     2.4451   2.4683   2.4829   2.5293   2.5834   2.6422   2.6618   2.7257
     8.0073   8.4909   9.3104   9.4274   9.6205   9.6587  10.2735  10.3972
    10.5531  10.6172

     occupation numbers 
     1.0000   1.0000   1.0000   1.0000   1.0000   1.0000   1.0000   1.0000
     1.0000   1.0000   1.0000   1.0000   1.0000   1.0000   1.0000   1.0000
     1.0000   1.0000   1.0000   1.0000   1.0000   1.0000   1.0000   1.0000
     1.0000   1.0000   1.0000   1.0000   1.0000   1.0000   1.0000   1.0000
     1.0000   1.0000   1.0000   1.0000   1.0000   1.0000   1.0000   1.0000
     1.0000   1.0000   1.0000   1.0000   1.0000   1.0000   1.0000   1.0000
     1.0000   1.0000   1.0000   1.0000   1.0000   1.0000   1.0000   1.0000
     1.0000   1.0000   1.0000   1.0000   1.0000   1.0000   1.0000   1.0000
     1.0000   1.0000   1.0000   1.0000   1.0000   1.0000   1.0000   1.0000
     1.0000   1.0000   1.0000   1.0000   1.0000   1.0000   1.0000   1.0000
     1.0000   1.0000   1.0000   1.0000   1.0000   1.0000   1.0000   1.0000
     1.0000   1.0000   1.0000   1.0000   1.0000   1.0000   1.0000   1.0000
     1.0000   1.0000   1.0000   1.0000   1.0000   1.0000   1.0000   1.0000
     0.0000   0.0000   0.0000   0.0000   0.0000   0.0000   0.0000   0.0000
     0.0000   0.0000

          k = 0.0000 0.2391 0.0000 ( 42299 PWs)   bands (ev):

   -87.0376 -87.0375 -86.9577 -86.9577 -53.1473 -53.1473 -53.1404 -53.1404
   -53.0026 -53.0025 -52.9120 -52.9119 -52.8581 -52.8581 -52.8329 -52.8329
   -46.3238 -18.2872 -18.2809 -18.2476 -16.6749 -16.5181 -16.5052 -16.4076
   -14.6703 -14.6274 -14.5945 -14.5629 -14.4979 -14.4675 -14.4432 -14.4291
   -14.4062 -14.3593 -14.2759 -14.2702  -5.3437  -5.0073  -4.9453  -4.6945
    -3.1091  -2.8982  -2.8035  -2.6846  -2.4374  -2.3864  -2.2877  -2.2219
    -2.1068  -2.0593  -1.7450  -1.4953  -1.4445  -1.3613  -1.0261  -0.9939
    -0.8858  -0.8679  -0.8042  -0.6981  -0.5898  -0.5593  -0.4710  -0.3471
    -0.3075  -0.2871  -0.2438  -0.1673   0.1111   0.1350   0.3052   0.4586
     0.4936   0.5946   0.6012   0.7107   0.7307   0.8680   0.9127   1.0258
     1.0835   1.2332   1.2483   1.2919   1.4218   1.4803   1.4984   1.5875
     1.6957   1.7483   1.7937   1.8820   1.9424   2.1173   2.2139   2.2230
     2.3522   2.3819   2.4179   2.4686   2.5960   2.6657   2.8712   2.9438
     6.5900   8.3862   8.9896   9.0365   9.6182   9.9971  10.4125  10.7441
    10.7966  11.0572

     occupation numbers 
     1.0000   1.0000   1.0000   1.0000   1.0000   1.0000   1.0000   1.0000
     1.0000   1.0000   1.0000   1.0000   1.0000   1.0000   1.0000   1.0000
     1.0000   1.0000   1.0000   1.0000   1.0000   1.0000   1.0000   1.0000
     1.0000   1.0000   1.0000   1.0000   1.0000   1.0000   1.0000   1.0000
     1.0000   1.0000   1.0000   1.0000   1.0000   1.0000   1.0000   1.0000
     1.0000   1.0000   1.0000   1.0000   1.0000   1.0000   1.0000   1.0000
     1.0000   1.0000   1.0000   1.0000   1.0000   1.0000   1.0000   1.0000
     1.0000   1.0000   1.0000   1.0000   1.0000   1.0000   1.0000   1.0000
     1.0000   1.0000   1.0000   1.0000   1.0000   1.0000   1.0000   1.0000
     1.0000   1.0000   1.0000   1.0000   1.0000   1.0000   1.0000   1.0000
     1.0000   1.0000   1.0000   1.0000   1.0000   1.0000   1.0000   1.0000
     1.0000   1.0000   1.0000   1.0000   1.0000   1.0000   1.0000   1.0000
     1.0000   1.0000   1.0000   1.0000   1.0000   1.0000   1.0000   1.0000
     0.0000   0.0000   0.0000   0.0000   0.0000   0.0000   0.0000   0.0000
     0.0000   0.0000

          k = 0.0000 0.2391 0.2337 ( 42264 PWs)   bands (ev):

   -87.0376 -87.0375 -86.9577 -86.9577 -53.1473 -53.1473 -53.1404 -53.1404
   -53.0026 -53.0025 -52.9120 -52.9119 -52.8581 -52.8581 -52.8329 -52.8329
   -46.3238 -18.2872 -18.2807 -18.2481 -16.6644 -16.5088 -16.5047 -16.4050
   -14.6764 -14.6362 -14.6021 -14.5680 -14.5049 -14.4677 -14.4481 -14.4289
   -14.4036 -14.3537 -14.2800 -14.2740  -5.3259  -5.0052  -4.9414  -4.7031
    -3.0739  -2.8767  -2.7953  -2.6755  -2.4394  -2.3819  -2.2782  -2.1992
    -2.0776  -2.0442  -1.7791  -1.5417  -1.4143  -1.3447  -1.0135  -0.9851
    -0.8925  -0.8255  -0.8084  -0.7011  -0.6034  -0.5547  -0.4756  -0.3419
    -0.3318  -0.2849  -0.2408  -0.1629   0.0466   0.0993   0.2612   0.4216
     0.5167   0.5943   0.6464   0.6656   0.7707   0.8657   0.8981   1.0231
     1.0992   1.1937   1.2456   1.2938   1.4005   1.4385   1.5359   1.5525
     1.6663   1.7216   1.7945   1.8792   1.9292   2.1422   2.2247   2.2370
     2.3484   2.3875   2.4496   2.4788   2.5964   2.6766   2.8562   2.9347
     6.7253   8.4727   8.9705   9.0992   9.6311   9.9672  10.3814  10.7260
    10.7734  11.0441

     occupation numbers 
     1.0000   1.0000   1.0000   1.0000   1.0000   1.0000   1.0000   1.0000
     1.0000   1.0000   1.0000   1.0000   1.0000   1.0000   1.0000   1.0000
     1.0000   1.0000   1.0000   1.0000   1.0000   1.0000   1.0000   1.0000
     1.0000   1.0000   1.0000   1.0000   1.0000   1.0000   1.0000   1.0000
     1.0000   1.0000   1.0000   1.0000   1.0000   1.0000   1.0000   1.0000
     1.0000   1.0000   1.0000   1.0000   1.0000   1.0000   1.0000   1.0000
     1.0000   1.0000   1.0000   1.0000   1.0000   1.0000   1.0000   1.0000
     1.0000   1.0000   1.0000   1.0000   1.0000   1.0000   1.0000   1.0000
     1.0000   1.0000   1.0000   1.0000   1.0000   1.0000   1.0000   1.0000
     1.0000   1.0000   1.0000   1.0000   1.0000   1.0000   1.0000   1.0000
     1.0000   1.0000   1.0000   1.0000   1.0000   1.0000   1.0000   1.0000
     1.0000   1.0000   1.0000   1.0000   1.0000   1.0000   1.0000   1.0000
     1.0000   1.0000   1.0000   1.0000   1.0000   1.0000   1.0000   1.0000
     0.0000   0.0000   0.0000   0.0000   0.0000   0.0000   0.0000   0.0000
     0.0000   0.0000

          k = 0.0000 0.2391 0.4675 ( 42241 PWs)   bands (ev):

   -87.0376 -87.0375 -86.9577 -86.9577 -53.1473 -53.1473 -53.1404 -53.1404
   -53.0026 -53.0025 -52.9120 -52.9119 -52.8581 -52.8581 -52.8329 -52.8329
   -46.3238 -18.2873 -18.2806 -18.2489 -16.6338 -16.5019 -16.4868 -16.4013
   -14.6925 -14.6611 -14.6230 -14.5863 -14.5090 -14.4761 -14.4526 -14.4330
   -14.3917 -14.3448 -14.2897 -14.2833  -5.2752  -5.0026  -4.9318  -4.7307
    -2.9795  -2.8226  -2.7733  -2.6605  -2.4340  -2.3719  -2.2659  -2.1092
    -2.0345  -1.9816  -1.8676  -1.6276  -1.3577  -1.2982  -0.9765  -0.9556
    -0.8764  -0.8384  -0.7378  -0.7108  -0.6021  -0.5541  -0.4843  -0.3750
    -0.3485  -0.2730  -0.2401  -0.1634  -0.0744   0.0332   0.1983   0.3865
     0.4049   0.5197   0.6149   0.6780   0.7479   0.8818   0.9403   0.9948
     1.1404   1.1586   1.2040   1.2443   1.3045   1.4113   1.4775   1.5462
     1.6262   1.7234   1.8044   1.9106   1.9817   2.1215   2.2412   2.3079
     2.3677   2.3970   2.5038   2.5151   2.5904   2.6896   2.8194   2.8980
     7.0872   8.7053   8.9835   9.1707   9.7139   9.8910  10.2937  10.6495
    10.6785  10.9508

     occupation numbers 
     1.0000   1.0000   1.0000   1.0000   1.0000   1.0000   1.0000   1.0000
     1.0000   1.0000   1.0000   1.0000   1.0000   1.0000   1.0000   1.0000
     1.0000   1.0000   1.0000   1.0000   1.0000   1.0000   1.0000   1.0000
     1.0000   1.0000   1.0000   1.0000   1.0000   1.0000   1.0000   1.0000
     1.0000   1.0000   1.0000   1.0000   1.0000   1.0000   1.0000   1.0000
     1.0000   1.0000   1.0000   1.0000   1.0000   1.0000   1.0000   1.0000
     1.0000   1.0000   1.0000   1.0000   1.0000   1.0000   1.0000   1.0000
     1.0000   1.0000   1.0000   1.0000   1.0000   1.0000   1.0000   1.0000
     1.0000   1.0000   1.0000   1.0000   1.0000   1.0000   1.0000   1.0000
     1.0000   1.0000   1.0000   1.0000   1.0000   1.0000   1.0000   1.0000
     1.0000   1.0000   1.0000   1.0000   1.0000   1.0000   1.0000   1.0000
     1.0000   1.0000   1.0000   1.0000   1.0000   1.0000   1.0000   1.0000
     1.0000   1.0000   1.0000   1.0000   1.0000   1.0000   1.0000   1.0000
     0.0000   0.0000   0.0000   0.0000   0.0000   0.0000   0.0000   0.0000
     0.0000   0.0000

          k = 0.0000 0.2391 0.7012 ( 42219 PWs)   bands (ev):

   -87.0376 -87.0375 -86.9577 -86.9577 -53.1473 -53.1473 -53.1404 -53.1404
   -53.0026 -53.0025 -52.9120 -52.9119 -52.8581 -52.8581 -52.8329 -52.8329
   -46.3238 -18.2875 -18.2807 -18.2493 -16.5912 -16.5035 -16.4587 -16.4015
   -14.7130 -14.6882 -14.6461 -14.6171 -14.5097 -14.4845 -14.4512 -14.4386
   -14.3754 -14.3333 -14.3032 -14.2977  -5.1995  -5.0115  -4.9157  -4.7793
    -2.8647  -2.7665  -2.7374  -2.6574  -2.4139  -2.3451  -2.2472  -2.0607
    -1.9788  -1.9133  -1.8947  -1.7392  -1.2606  -1.2119  -0.9225  -0.9200
    -0.8780  -0.8575  -0.7315  -0.6233  -0.5910  -0.5808  -0.4825  -0.4249
    -0.3665  -0.2597  -0.2370  -0.1870  -0.1724  -0.0367   0.1249   0.1737
     0.3015   0.4793   0.5802   0.6456   0.7272   0.9186   0.9353   0.9492
     1.0574   1.1153   1.1522   1.2120   1.2901   1.3672   1.4153   1.4897
     1.6775   1.7348   1.8300   2.0023   2.0698   2.1298   2.2607   2.3323
     2.4030   2.4362   2.5436   2.5600   2.5907   2.6921   2.7639   2.8376
     7.5820   8.8991   9.0368   9.2595   9.7731   9.8696  10.1737  10.5243
[...]
     atom   16 type  3   force =    -0.06694341    0.00058368    0.03145025
     atom   17 type  3   force =     0.07339520   -0.00008838    0.02484386
     atom   18 type  3   force =    -0.03325119   -0.06344723    0.03092795
     atom   19 type  3   force =     0.03044709    0.06559159    0.03423379
     atom   20 type  3   force =     0.03057469   -0.06134602   -0.03839072
     atom   21 type  3   force =    -0.02796747    0.06307215   -0.03380500
     atom   22 type  3   force =     0.03324771    0.06344417   -0.03092343
     atom   23 type  3   force =    -0.03044782   -0.06559546   -0.03423500
     atom   24 type  3   force =    -0.03057714    0.06134791    0.03839584
     atom   25 type  3   force =     0.02796709   -0.06307010    0.03380497
     The non-local contrib.  to forces
     atom    1 type  2   force =     0.00001123   -0.00000769   -0.00001345
     atom    2 type  1   force =    -0.05116328    0.00560214    0.08646324
     atom    3 type  1   force =    -0.11499483   -0.06682390    0.09940396
     atom    4 type  1   force =     0.05115770   -0.00560102   -0.08648393
     atom    5 type  1   force =     0.11498703    0.06682550   -0.09939231
     atom    6 type  4   force =    -0.02165675    0.00281320   -0.02106467
     atom    7 type  4   force =     0.02353368    0.00406304   -0.03416990
     atom    8 type  4   force =     0.02164434   -0.00281457    0.02103357
     atom    9 type  4   force =    -0.02353376   -0.00406016    0.03418360
     atom   10 type  3   force =     0.24148951    0.03049958   -1.48716699
     atom   11 type  3   force =    -0.38327395    0.02231866   -1.51373339
     atom   12 type  3   force =    -0.24151768   -0.03051715    1.48712161
     atom   13 type  3   force =     0.38326316   -0.02231761    1.51374144
     atom   14 type  3   force =     1.20301335   -0.01582703   -0.72528738
     atom   15 type  3   force =    -1.23071424    0.00964560   -0.60098805
     atom   16 type  3   force =    -1.20301991    0.01582803    0.72526740
     atom   17 type  3   force =     1.23068423   -0.00963535    0.60100693
     atom   18 type  3   force =    -0.63300484   -1.10660332    0.67051180
     atom   19 type  3   force =     0.56556206    1.12257560    0.74427067
     atom   20 type  3   force =     0.57179000   -1.08998187   -0.82576765
     atom   21 type  3   force =    -0.52446203    1.09079442   -0.74019069
     atom   22 type  3   force =     0.63301669    1.10662113   -0.67048627
     atom   23 type  3   force =    -0.56555104   -1.12256678   -0.74427238
     atom   24 type  3   force =    -0.57178354    1.08995699    0.82578787
     atom   25 type  3   force =     0.52446246   -1.09079515    0.74019144
     The ionic contribution  to forces
     atom    1 type  2   force =     0.00069232   -0.00025689   -0.00016679
     atom    2 type  1   force =     8.63660433   -1.50823111   -0.56322766
     atom    3 type  1   force =     1.69704350    0.90416753   -0.58663787
     atom    4 type  1   force =    -8.63697602    1.50847543    0.56322627
     atom    5 type  1   force =    -1.69723938   -0.90432116    0.58659555
     atom    6 type  4   force =    -1.26994534   -1.41869757    0.82240228
     atom    7 type  4   force =     3.89796493    0.04498597    0.37185707
     atom    8 type  4   force =     1.26999939    1.41875583   -0.82263805
     atom    9 type  4   force =    -3.89809351   -0.04498327   -0.37172346
     atom   10 type  3   force =    -5.30692265   -2.29768711    1.69338406
     atom   11 type  3   force =    10.15131662   -0.07526316    2.51716795
     atom   12 type  3   force =     5.30710964    2.29797443   -1.69293379
     atom   13 type  3   force =   -10.15143710    0.07524295   -2.51727473
     atom   14 type  3   force =     2.62702034    0.08739724    5.71371613
     atom   15 type  3   force =    -0.44470134    2.33534294    3.59504189
     atom   16 type  3   force =    -2.62719373   -0.08738892   -5.71366470
     atom   17 type  3   force =     0.44509673   -2.33550133   -3.59490419
     atom   18 type  3   force =     1.29969296    2.62020903   -0.63984047
     atom   19 type  3   force =     4.66683086   -2.93146327   -2.51705479
     atom   20 type  3   force =     1.23704301    2.39607155    2.79609348
     atom   21 type  3   force =    -4.25437173   -2.80645481    2.39022837
     atom   22 type  3   force =    -1.29977524   -2.62018260    0.63959535
     atom   23 type  3   force =    -4.66703481    2.93136130    2.51713447
     atom   24 type  3   force =    -1.23701879   -2.39599904   -2.79617002
     atom   25 type  3   force =     4.25429501    2.80644605   -2.39020635
     The local contribution  to forces
     atom    1 type  2   force =    -0.00070607    0.00026497    0.00018071
     atom    2 type  1   force =    -8.57917599    1.50227862    0.47271481
     atom    3 type  1   force =    -1.56935049   -0.83155981    0.47985274
     atom    4 type  1   force =     8.57955888   -1.50252256   -0.47268804
     atom    5 type  1   force =     1.56955209    0.83171006   -0.47982609
     atom    6 type  4   force =     1.29284206    1.41700294   -0.79950342
     atom    7 type  4   force =    -3.92533953   -0.04876518   -0.33581506
     atom    8 type  4   force =    -1.29289616   -1.41705834    0.79973249
     atom    9 type  4   force =     3.92547176    0.04876157    0.33568522
     atom   10 type  3   force =     5.07530337    2.26820969   -0.29867143
     atom   11 type  3   force =    -9.78572943    0.05407618   -1.09265363
     atom   12 type  3   force =    -5.07547301   -2.26847886    0.29828213
     atom   13 type  3   force =     9.78586456   -0.05405677    1.09274103
     atom   14 type  3   force =    -3.75157024   -0.07231730   -5.02747170
     atom   15 type  3   force =     1.59031397   -2.34471306   -3.02528235
     atom   16 type  3   force =     3.75176405    0.07230839    5.02744049
     atom   17 type  3   force =    -1.59067806    2.34486107    3.02513099
     atom   18 type  3   force =    -0.70605904   -1.58780675    0.00699999
     atom   19 type  3   force =    -5.19642137    1.88534917    1.81445723
     atom   20 type  3   force =    -1.77272533   -1.37789073   -2.01706731
     atom   21 type  3   force =     4.74577960    1.78926912   -1.69126452
     atom   22 type  3   force =     0.70611987    1.58776520   -0.00677151
     atom   23 type  3   force =     5.19661676   -1.88525190   -1.81453962
     atom   24 type  3   force =     1.77268649    1.37783923    2.01713271
     atom   25 type  3   force =    -4.74570039   -1.78926584    1.69123840
     The core correction contribution to forces
     atom    1 type  2   force =     0.00000000    0.00000000    0.00000000
     atom    2 type  1   force =     0.00017492   -0.00017774    0.00048153
     atom    3 type  1   force =     0.00127910    0.00046682   -0.00043225
     atom    4 type  1   force =    -0.00017492    0.00017775   -0.00048148
     atom    5 type  1   force =    -0.00127923   -0.00046689    0.00043224
     atom    6 type  4   force =     0.00141852    0.00008913    0.00122678
     atom    7 type  4   force =    -0.00157770   -0.00025094    0.00259840
     atom    8 type  4   force =    -0.00141738   -0.00008904   -0.00122362
     atom    9 type  4   force =     0.00157775    0.00025066   -0.00259987
     atom   10 type  3   force =    -0.00300178   -0.00028244    0.01442769
     atom   11 type  3   force =     0.00438890   -0.00023336    0.01470071
     atom   12 type  3   force =     0.00300208    0.00028260   -0.01442773
     atom   13 type  3   force =    -0.00438879    0.00023335   -0.01470055
     atom   14 type  3   force =    -0.01151322    0.00016364    0.00759163
     atom   15 type  3   force =     0.01170995   -0.00018738    0.00638932
     atom   16 type  3   force =     0.01151326   -0.00016365   -0.00759141
     atom   17 type  3   force =    -0.01170984    0.00018729   -0.00638960
     atom   18 type  3   force =     0.00611559    0.01075683   -0.00674087
     atom   19 type  3   force =    -0.00552368   -0.01086508   -0.00744114
     atom   20 type  3   force =    -0.00553477    0.01045244    0.00835220
     atom   21 type  3   force =     0.00508915   -0.01053979    0.00742040
     atom   22 type  3   force =    -0.00611563   -0.01075694    0.00674056
     atom   23 type  3   force =     0.00552361    0.01086507    0.00744121
     atom   24 type  3   force =     0.00553477   -0.01045225   -0.00835246
     atom   25 type  3   force =    -0.00508913    0.01053977   -0.00742040
     The Hubbard contrib.    to forces
     atom    1 type  2   force =     0.00000000    0.00000000    0.00000000
     atom    2 type  1   force =     0.00000000    0.00000000    0.00000000
     atom    3 type  1   force =     0.00000000    0.00000000    0.00000000
     atom    4 type  1   force =     0.00000000    0.00000000    0.00000000
     atom    5 type  1   force =     0.00000000    0.00000000    0.00000000
     atom    6 type  4   force =     0.00000000    0.00000000    0.00000000
     atom    7 type  4   force =     0.00000000    0.00000000    0.00000000
     atom    8 type  4   force =     0.00000000    0.00000000    0.00000000
     atom    9 type  4   force =     0.00000000    0.00000000    0.00000000
     atom   10 type  3   force =     0.00000000    0.00000000    0.00000000
     atom   11 type  3   force =     0.00000000    0.00000000    0.00000000
     atom   12 type  3   force =     0.00000000    0.00000000    0.00000000
     atom   13 type  3   force =     0.00000000    0.00000000    0.00000000
     atom   14 type  3   force =     0.00000000    0.00000000    0.00000000
     atom   15 type  3   force =     0.00000000    0.00000000    0.00000000
     atom   16 type  3   force =     0.00000000    0.00000000    0.00000000
     atom   17 type  3   force =     0.00000000    0.00000000    0.00000000
     atom   18 type  3   force =     0.00000000    0.00000000    0.00000000
     atom   19 type  3   force =     0.00000000    0.00000000    0.00000000
     atom   20 type  3   force =     0.00000000    0.00000000    0.00000000
     atom   21 type  3   force =     0.00000000    0.00000000    0.00000000
     atom   22 type  3   force =     0.00000000    0.00000000    0.00000000
     atom   23 type  3   force =     0.00000000    0.00000000    0.00000000
     atom   24 type  3   force =     0.00000000    0.00000000    0.00000000
     atom   25 type  3   force =     0.00000000    0.00000000    0.00000000
     The SCF correction term to forces
     atom    1 type  2   force =     0.00000576   -0.00000142   -0.00000020
     atom    2 type  1   force =     0.00000049   -0.00000013   -0.00000124
     atom    3 type  1   force =     0.00000493    0.00000091    0.00000005
     atom    4 type  1   force =    -0.00000459    0.00000002    0.00000119
     atom    5 type  1   force =    -0.00000034   -0.00000014   -0.00000081
     atom    6 type  4   force =     0.00000357   -0.00000013    0.00000005
     atom    7 type  4   force =    -0.00000152    0.00000002    0.00000007
     atom    8 type  4   force =     0.00000260   -0.00000002   -0.00000110
     atom    9 type  4   force =    -0.00000361    0.00000001    0.00000016
     atom   10 type  3   force =     0.00000631   -0.00000015    0.00000292
     atom   11 type  3   force =    -0.00000105    0.00000003   -0.00000034
     atom   12 type  3   force =     0.00000428    0.00000004    0.00000168
     atom   13 type  3   force =    -0.00000309   -0.00000002   -0.00000020
     atom   14 type  3   force =    -0.00000712   -0.00000013   -0.00000139
     atom   15 type  3   force =     0.00000287   -0.00000004    0.00000016
     atom   16 type  3   force =    -0.00000713   -0.00000016   -0.00000154
     atom   17 type  3   force =     0.00000211   -0.00000004   -0.00000027
     atom   18 type  3   force =     0.00000410   -0.00000301   -0.00000251
     atom   19 type  3   force =    -0.00000082   -0.00000481    0.00000182
     atom   20 type  3   force =     0.00000174    0.00000260   -0.00000145
     atom   21 type  3   force =    -0.00000250    0.00000321    0.00000144
     atom   22 type  3   force =     0.00000197   -0.00000261   -0.00000156
     atom   23 type  3   force =    -0.00000239   -0.00000315    0.00000132
     atom   24 type  3   force =     0.00000389    0.00000299   -0.00000227
     atom   25 type  3   force =    -0.00000090    0.00000508    0.00000187

     Total force =     0.310879     Total SCF correction =     0.000022


     Computing stress (Cartesian axis) and pressure


     negative rho (up, down):  0.000E+00 9.833E-04
          total   stress  (Ry/bohr**3)                   (kbar)     P=     -182.72
  -0.00148678   0.00002594   0.00000833         -218.71        3.82        1.22
   0.00002594  -0.00109556  -0.00000942            3.82     -161.16       -1.39
   0.00000833  -0.00000942  -0.00114403            1.22       -1.39     -168.29

     kinetic stress (kbar)  22398.85     19.61     -4.58
                               19.61  22611.56      1.07
                               -4.58      1.07  22439.12

     local   stress (kbar)  -5480.51   2329.30   -749.33
                             2329.30 -13686.61    805.09
                             -749.33    805.09  -7650.38

     nonloc. stress (kbar)  -5646.66      0.62      0.74
                                0.62  -5611.69      1.09
                                0.74      1.09  -5612.00

     hartree stress (kbar)  11474.89   -956.64    295.11
                             -956.64  15885.33   -331.98
                              295.11   -331.98  12910.47

     exc-cor stress (kbar)  -2381.83     -1.16      0.50
                               -1.16  -2387.12     -0.24
                                0.50     -0.24  -2385.42

     corecor stress (kbar)  -2686.58      0.41     -0.40
                                0.41  -2686.99     -0.03
                               -0.40     -0.03  -2688.07

     ewald   stress (kbar) -17896.89  -1388.32    459.19
                            -1388.32 -14285.64   -476.39
                              459.19   -476.39 -17182.00

     hubbard stress (kbar)      0.00      0.00      0.00
                                0.00      0.00      0.00
                                0.00      0.00      0.00

     DFT-D   stress (kbar)      0.00      0.00      0.00
                                0.00      0.00      0.00
                                0.00      0.00      0.00

     XDM     stress (kbar)      0.00      0.00      0.00
                                0.00      0.00      0.00
                                0.00      0.00      0.00

     dft-nl  stress (kbar)      0.00      0.00      0.00
                                0.00      0.00      0.00
                                0.00      0.00      0.00

     TS-vdW  stress (kbar)      0.00      0.00      0.00
                                0.00      0.00      0.00
                                0.00      0.00      0.00



     init_run     :   1275.24s CPU   1390.94s WALL (       1 calls)
     electrons    : 108643.63s CPU 120493.59s WALL (       1 calls)
     forces       :    209.74s CPU    227.59s WALL (       1 calls)
     stress       :    942.45s CPU   1025.41s WALL (       1 calls)

     Called by init_run:
     wfcinit      :   1259.75s CPU   1373.61s WALL (       1 calls)
     wfcinit:atom :      1.27s CPU      1.40s WALL (     316 calls)
     wfcinit:wfcr :   1252.25s CPU   1365.37s WALL (     316 calls)
     potinit      :      6.87s CPU      7.13s WALL (       1 calls)
     hinit0       :      4.94s CPU      5.75s WALL (       1 calls)

     Called by electrons:
     c_bands      :  91190.32s CPU 101099.07s WALL (      37 calls)
     sum_band     :  17176.61s CPU  19073.42s WALL (      37 calls)
     v_of_rho     :    100.37s CPU    109.73s WALL (      38 calls)
     v_h          :      7.42s CPU      8.11s WALL (      38 calls)
     v_xc         :     98.36s CPU    107.05s WALL (      40 calls)
     newd         :     81.33s CPU    105.41s WALL (      38 calls)
     PAW_pot      :     21.95s CPU     24.67s WALL (      38 calls)
     mix_rho      :     59.97s CPU     66.50s WALL (      37 calls)

     Called by c_bands:
     init_us_2    :    205.13s CPU    231.17s WALL (   24332 calls)
     cegterg      :  90055.71s CPU  99803.84s WALL (   11692 calls)

     Called by sum_band:
     sum_band:wei :      0.66s CPU      0.71s WALL (      37 calls)
     sum_band:loo :  16999.64s CPU  18852.83s WALL (      37 calls)
     sum_band:buf :     57.46s CPU     61.03s WALL (   11692 calls)
     sum_band:ini :     91.92s CPU    104.36s WALL (   11692 calls)
     sum_band:cal :   1589.66s CPU   1764.57s WALL (   11692 calls)
     sum_band:bec :      8.32s CPU      8.95s WALL (   11692 calls)
     addusdens    :    151.69s CPU    193.47s WALL (      37 calls)
     addusd:skk   :      1.17s CPU      1.39s WALL (     111 calls)
     addusd:dgemm :     61.83s CPU     90.64s WALL (     222 calls)
     addusd:qvan2 :     86.74s CPU     98.86s WALL (     222 calls)

     Called by *egterg:
     cdiaghg      :   4156.72s CPU   4653.69s WALL (   44698 calls)
     cegterg:over :   5158.52s CPU   5681.40s WALL (   33006 calls)
     cegterg:upda :    718.96s CPU    808.78s WALL (   33006 calls)
     cegterg:last :   1641.89s CPU   1842.45s WALL (   19861 calls)
     h_psi        :  73252.30s CPU  81169.00s WALL (   45014 calls)
     s_psi        :   1724.14s CPU   1931.14s WALL (   45014 calls)
     g_psi        :     12.76s CPU     14.18s WALL (   33006 calls)

     Called by h_psi:
     h_psi:calbec :   4388.45s CPU   4859.35s WALL (   45014 calls)
     vloc_psi     :  66927.13s CPU  74122.20s WALL (   45014 calls)
     add_vuspsi   :   1846.59s CPU   2091.76s WALL (   45014 calls)

     General routines
     calbec       :   6272.58s CPU   6940.25s WALL (   58286 calls)
     fft          :    150.57s CPU    164.91s WALL (     988 calls)
     ffts         :      2.54s CPU      2.88s WALL (     150 calls)
     fftw         :  81878.27s CPU  90733.09s WALL ( 7171108 calls)
     interpolate  :     11.52s CPU     13.14s WALL (      76 calls)

     Parallel routines
     fft_scatt_xy :    354.58s CPU    355.16s WALL ( 7172246 calls)
     fft_scatt_yz :  79298.45s CPU  88163.98s WALL ( 7172246 calls)

     PAW routines
     PAW_pot      :     21.95s CPU     24.67s WALL (      38 calls)

     PWSCF        :   1d 6h51m CPU   1d10h12m WALL


   This run was terminated on:  15: 1:15   4Feb2023            

=------------------------------------------------------------------------------=
   JOB DONE.
=------------------------------------------------------------------------------=
Note: The following floating-point exceptions are signalling: IEEE_UNDERFLOW_FLAG IEEE_DENORMAL
Note: The following floating-point exceptions are signalling: IEEE_DENORMAL
Note: The following floating-point exceptions are signalling: IEEE_DENORMAL
Note: The following floating-point exceptions are signalling: IEEE_DENORMAL
Note: The following floating-point exceptions are signalling: IEEE_DENORMAL
Note: The following floating-point exceptions are signalling: IEEE_DENORMAL
Note: The following floating-point exceptions are signalling: IEEE_DENORMAL
Note: The following floating-point exceptions are signalling: IEEE_DENORMAL
Note: The following floating-point exceptions are signalling: IEEE_DENORMAL
Note: The following floating-point exceptions are signalling: IEEE_DENORMAL
Note: The following floating-point exceptions are signalling: IEEE_DENORMAL
Note: The following floating-point exceptions are signalling: IEEE_DENORMAL
Note: The following floating-point exceptions are signalling: IEEE_DENORMAL
Note: The following floating-point exceptions are signalling: IEEE_DENORMAL
Note: The following floating-point exceptions are signalling: IEEE_DENORMAL
Note: The following floating-point exceptions are signalling: IEEE_DENORMAL
Note: The following floating-point exceptions are signalling: IEEE_DENORMAL
