
     Program PWSCF v.6.7MaX starts on 31Jan2023 at 12: 6:35 

     This program is part of the open-source Quantum ESPRESSO suite
     for quantum simulation of materials; please cite
         "P. Giannozzi et al., J. Phys.:Condens. Matter 21 395502 (2009);
         "P. Giannozzi et al., J. Phys.:Condens. Matter 29 465901 (2017);
          URL http://www.quantum-espresso.org", 
     in publications or presentations arising from this work. More details at
     http://www.quantum-espresso.org/quote

     Parallel version (MPI), running on    24 processors

     MPI processes distributed on     1 nodes
     R & G space division:  proc/nbgrp/npool/nimage =      24
     Reading input from scale_2dab-05.in

     Current dimensions of program PWSCF are:
     Max number of different atomic species (ntypx) = 10
     Max number of k-points (npk) =  40000
     Max angular momentum in pseudopotentials (lmaxx) =  3
     Message from routine read_pp_mesh:
     mesh size missing, using the one in header
     file Fe.pbe-spn-kjpaw_psl.0.2.1.UPF: wavefunction(s)  3D renormalized
     file O.pbe-n-kjpaw_psl.0.1.UPF: wavefunction(s)  2P renormalized

     Subspace diagonalization in iterative solution of the eigenvalue problem:
     a serial algorithm will be used


     Parallelization info
     --------------------
     sticks:   dense  smooth     PW     G-vecs:    dense   smooth      PW
     Min         912     338     91                59470    13411    1881
     Max         913     340     92                59472    13412    1884
     Sum       21895    8121   2193              1427303   321883   45159



     bravais-lattice index     =            0
     lattice parameter (alat)  =      20.6483  a.u.
     unit-cell volume          =    2381.7944 (a.u.)^3
     number of atoms/cell      =           25
     number of atomic types    =            4
     number of electrons       =       189.00
     number of Kohn-Sham states=          114
     kinetic-energy cutoff     =     100.0000  Ry
     charge density cutoff     =    1080.0000  Ry
     scf convergence threshold =      2.0E-10
     mixing beta               =       0.4000
     number of iterations used =            8  plain     mixing
     Exchange-correlation= PBE
                           (   1   4   3   4   0   0   0)

     celldm(1)=  20.648310  celldm(2)=   0.000000  celldm(3)=   0.000000
     celldm(4)=   0.000000  celldm(5)=   0.000000  celldm(6)=   0.000000

     crystal axes: (cart. coord. in units of alat)
               a(1) = (   1.000000   0.000000   0.000000 )  
               a(2) = (   0.000000   0.597590   0.000000 )  
               a(3) = (   0.000000   0.000000   0.452739 )  

     reciprocal axes: (cart. coord. in units 2 pi/alat)
               b(1) = (  1.000000  0.000000  0.000000 )  
               b(2) = (  0.000000  1.673388  0.000000 )  
               b(3) = (  0.000000  0.000000  2.208780 )  


     PseudoPot. # 1 for Fe read from file:
     /opt/QEpot/SSSP_precision_pseudos/Fe.pbe-spn-kjpaw_psl.0.2.1.UPF
     MD5 check sum: e86618425769142926afa95317d90200
     Pseudo is Projector augmented-wave + core cor, Zval = 16.0
     Generated using "atomic" code by A. Dal Corso  v.5.0.99 svn rev. 10869
     Shape of augmentation charge: PSQ
     Using radial grid of 1191 points,  6 beta functions with: 
                l(1) =   0
                l(2) =   0
                l(3) =   1
                l(4) =   1
                l(5) =   2
                l(6) =   2
     Q(r) pseudized with 0 coefficients 


     PseudoPot. # 2 for Na read from file:
     /opt/QEpot/SSSP_precision_pseudos/Na_ONCV_PBE-1.0.oncvpsp.upf
     MD5 check sum: 24a298df0a6742ae313db96548fdb2a4
     Pseudo is Norm-conserving, Zval =  9.0
     Generated using ONCVPSP code by D. R. Hamann
     Using radial grid of 1992 points,  4 beta functions with: 
                l(1) =   0
                l(2) =   0
                l(3) =   1
                l(4) =   1

     PseudoPot. # 3 for O  read from file:
     /opt/QEpot/SSSP_precision_pseudos/O.pbe-n-kjpaw_psl.0.1.UPF
     MD5 check sum: 0234752ac141de4415c5fc33072bef88
     Pseudo is Projector augmented-wave + core cor, Zval =  6.0
     Generated using "atomic" code by A. Dal Corso  v.5.0.99 svn rev. 10869
     Shape of augmentation charge: BESSEL
     Using radial grid of 1095 points,  4 beta functions with: 
                l(1) =   0
                l(2) =   0
                l(3) =   1
                l(4) =   1
     Q(r) pseudized with 0 coefficients 


     PseudoPot. # 4 for P  read from file:
     /opt/QEpot/SSSP_precision_pseudos/P.pbe-n-rrkjus_psl.1.0.0.UPF
     MD5 check sum: 8b930f418f0a4573dca56cd030ffe088
     Pseudo is Ultrasoft + core correction, Zval =  5.0
     Generated using "atomic" code by A. Dal Corso  v.5.1
     Using radial grid of 1147 points,  6 beta functions with: 
                l(1) =   0
                l(2) =   0
                l(3) =   1
                l(4) =   1
                l(5) =   2
                l(6) =   2
     Q(r) pseudized with 0 coefficients 


     atomic species   valence    mass     pseudopotential
        Fe            16.00    55.84500     Fe( 1.00)
        Na             9.00    22.98977     Na( 1.00)
        O              6.00    15.99940     O ( 1.00)
        P              5.00    30.97376     P ( 1.00)

     Starting magnetic structure 
     atomic species   magnetization
        Fe           0.312
        Na           0.000
        O            0.000
        P            0.000

     No symmetry found


                                    s                        frac. trans.

      isym =  1     identity                                     

 cryst.   s( 1) = (     1          0          0      )
                  (     0          1          0      )
                  (     0          0          1      )

 cart.    s( 1) = (  1.0000000  0.0000000  0.0000000 )
                  (  0.0000000  1.0000000  0.0000000 )
                  (  0.0000000  0.0000000  1.0000000 )


   Cartesian axes

     site n.     atom                  positions (alat units)
         1           Na  tau(   1) = (   0.9999980   0.0000000   0.0000027  )
         2           Fe  tau(   2) = (   0.2867560   0.4460794   0.4482365  )
         3           Fe  tau(   3) = (   0.2233660   0.1521093   0.2243496  )
         4           Fe  tau(   4) = (   0.7132500   0.1515135   0.0045043  )
         5           Fe  tau(   5) = (   0.7766390   0.4454836   0.2283917  )
         6           P   tau(   6) = (   0.1081020   0.4457710   0.2016194  )
         7           P   tau(   7) = (   0.3915960   0.1487097   0.4278823  )
         8           P   tau(   8) = (   0.8919040   0.1518219   0.2511232  )
         9           P   tau(   9) = (   0.6084100   0.4488833   0.0248581  )
        10           O   tau(  10) = (   0.1288530   0.4505057   0.3415288  )
        11           O   tau(  11) = (   0.3681240   0.1483858   0.1143332  )
        12           O   tau(  12) = (   0.8711530   0.1470872   0.1112112  )
        13           O   tau(  13) = (   0.6318820   0.4492071   0.3384085  )
        14           O   tau(  14) = (   0.4626860   0.4491420   0.0524484  )
        15           O   tau(  15) = (   0.0379730   0.1464053   0.2819561  )
        16           O   tau(  16) = (   0.5373200   0.1484509   0.4002929  )
        17           O   tau(  17) = (   0.9620320   0.4511876   0.1707848  )
        18           O   tau(  18) = (   0.1766340   0.5619359   0.1336973  )
        19           O   tau(  19) = (   0.3194030   0.0336198   0.3630601  )
        20           O   tau(  20) = (   0.8223270   0.2689908   0.3130483  )
        21           O   tau(  21) = (   0.6786820   0.3316977   0.0889043  )
        22           O   tau(  22) = (   0.8233720   0.0356570   0.3190435  )
        23           O   tau(  23) = (   0.6806030   0.5639737   0.0896807  )
        24           O   tau(  24) = (   0.1776790   0.3286021   0.1396925  )
        25           O   tau(  25) = (   0.3213240   0.2658952   0.3638366  )

   Crystallographic axes

     site n.     atom                  positions (cryst. coord.)
         1           Na  tau(   1) = (  0.9999980  0.0000000  0.0000060  )
         2           Fe  tau(   2) = (  0.2867560  0.7464640  0.9900560  )
         3           Fe  tau(   3) = (  0.2233660  0.2545380  0.4955390  )
         4           Fe  tau(   4) = (  0.7132500  0.2535410  0.0099490  )
         5           Fe  tau(   5) = (  0.7766390  0.7454670  0.5044670  )
         6           P   tau(   6) = (  0.1081020  0.7459480  0.4453330  )
         7           P   tau(   7) = (  0.3915960  0.2488490  0.9450980  )
         8           P   tau(   8) = (  0.8919040  0.2540570  0.5546760  )
         9           P   tau(   9) = (  0.6084100  0.7511560  0.0549060  )
        10           O   tau(  10) = (  0.1288530  0.7538710  0.7543620  )
        11           O   tau(  11) = (  0.3681240  0.2483070  0.2525370  )
        12           O   tau(  12) = (  0.8711530  0.2461340  0.2456410  )
        13           O   tau(  13) = (  0.6318820  0.7516980  0.7474700  )
        14           O   tau(  14) = (  0.4626860  0.7515890  0.1158470  )
        15           O   tau(  15) = (  0.0379730  0.2449930  0.6227790  )
        16           O   tau(  16) = (  0.5373200  0.2484160  0.8841590  )
        17           O   tau(  17) = (  0.9620320  0.7550120  0.3772260  )
        18           O   tau(  18) = (  0.1766340  0.9403370  0.2953080  )
        19           O   tau(  19) = (  0.3194030  0.0562590  0.8019200  )
        20           O   tau(  20) = (  0.8223270  0.4501260  0.6914550  )
        21           O   tau(  21) = (  0.6786820  0.5550590  0.1963700  )
        22           O   tau(  22) = (  0.8233720  0.0596680  0.7046970  )
        23           O   tau(  23) = (  0.6806030  0.9437470  0.1980850  )
        24           O   tau(  24) = (  0.1776790  0.5498790  0.3085500  )
        25           O   tau(  25) = (  0.3213240  0.4449460  0.8036350  )

     number of k points=   158  Marzari-Vanderbilt smearing, width (Ry)=  0.0073
                       cart. coord. in units 2pi/alat
        k(    1) = (   0.0000000   0.0000000   0.0000000), wk =   0.0031746
        k(    2) = (   0.0000000   0.0000000   0.2454200), wk =   0.0063492
        k(    3) = (   0.0000000   0.0000000   0.4908401), wk =   0.0063492
        k(    4) = (   0.0000000   0.0000000   0.7362601), wk =   0.0063492
        k(    5) = (   0.0000000   0.0000000   0.9816801), wk =   0.0063492
        k(    6) = (   0.0000000   0.2390555   0.0000000), wk =   0.0063492
        k(    7) = (   0.0000000   0.2390555   0.2454200), wk =   0.0063492
        k(    8) = (   0.0000000   0.2390555   0.4908401), wk =   0.0063492
        k(    9) = (   0.0000000   0.2390555   0.7362601), wk =   0.0063492
        k(   10) = (   0.0000000   0.2390555   0.9816801), wk =   0.0063492
        k(   11) = (   0.0000000   0.4781110   0.0000000), wk =   0.0063492
        k(   12) = (   0.0000000   0.4781110   0.2454200), wk =   0.0063492
        k(   13) = (   0.0000000   0.4781110   0.4908401), wk =   0.0063492
        k(   14) = (   0.0000000   0.4781110   0.7362601), wk =   0.0063492
        k(   15) = (   0.0000000   0.4781110   0.9816801), wk =   0.0063492
        k(   16) = (   0.0000000   0.7171664   0.0000000), wk =   0.0063492
        k(   17) = (   0.0000000   0.7171664   0.2454200), wk =   0.0063492
        k(   18) = (   0.0000000   0.7171664   0.4908401), wk =   0.0063492
        k(   19) = (   0.0000000   0.7171664   0.7362601), wk =   0.0063492
        k(   20) = (   0.0000000   0.7171664   0.9816801), wk =   0.0063492
        k(   21) = (   0.2000000   0.0000000   0.0000000), wk =   0.0063492
        k(   22) = (   0.2000000   0.0000000   0.2454200), wk =   0.0063492
        k(   23) = (   0.2000000   0.0000000   0.4908401), wk =   0.0063492
        k(   24) = (   0.2000000   0.0000000   0.7362601), wk =   0.0063492
        k(   25) = (   0.2000000   0.0000000   0.9816801), wk =   0.0063492
        k(   26) = (   0.2000000   0.2390555   0.0000000), wk =   0.0063492
        k(   27) = (   0.2000000   0.2390555   0.2454200), wk =   0.0063492
        k(   28) = (   0.2000000   0.2390555   0.4908401), wk =   0.0063492
        k(   29) = (   0.2000000   0.2390555   0.7362601), wk =   0.0063492
        k(   30) = (   0.2000000   0.2390555   0.9816801), wk =   0.0063492
        k(   31) = (   0.2000000   0.4781110   0.0000000), wk =   0.0063492
        k(   32) = (   0.2000000   0.4781110   0.2454200), wk =   0.0063492
        k(   33) = (   0.2000000   0.4781110   0.4908401), wk =   0.0063492
        k(   34) = (   0.2000000   0.4781110   0.7362601), wk =   0.0063492
        k(   35) = (   0.2000000   0.4781110   0.9816801), wk =   0.0063492
        k(   36) = (   0.2000000   0.7171664   0.0000000), wk =   0.0063492
        k(   37) = (   0.2000000   0.7171664   0.2454200), wk =   0.0063492
        k(   38) = (   0.2000000   0.7171664   0.4908401), wk =   0.0063492
        k(   39) = (   0.2000000   0.7171664   0.7362601), wk =   0.0063492
        k(   40) = (   0.2000000   0.7171664   0.9816801), wk =   0.0063492
        k(   41) = (   0.4000000   0.0000000   0.0000000), wk =   0.0063492
        k(   42) = (   0.4000000   0.0000000   0.2454200), wk =   0.0063492
        k(   43) = (   0.4000000   0.0000000   0.4908401), wk =   0.0063492
        k(   44) = (   0.4000000   0.0000000   0.7362601), wk =   0.0063492
        k(   45) = (   0.4000000   0.0000000   0.9816801), wk =   0.0063492
        k(   46) = (   0.4000000   0.2390555   0.0000000), wk =   0.0063492
        k(   47) = (   0.4000000   0.2390555   0.2454200), wk =   0.0063492
        k(   48) = (   0.4000000   0.2390555   0.4908401), wk =   0.0063492
        k(   49) = (   0.4000000   0.2390555   0.7362601), wk =   0.0063492
        k(   50) = (   0.4000000   0.2390555   0.9816801), wk =   0.0063492
        k(   51) = (   0.4000000   0.4781110   0.0000000), wk =   0.0063492
        k(   52) = (   0.4000000   0.4781110   0.2454200), wk =   0.0063492
        k(   53) = (   0.4000000   0.4781110   0.4908401), wk =   0.0063492
        k(   54) = (   0.4000000   0.4781110   0.7362601), wk =   0.0063492
        k(   55) = (   0.4000000   0.4781110   0.9816801), wk =   0.0063492
        k(   56) = (   0.4000000   0.7171664   0.0000000), wk =   0.0063492
        k(   57) = (   0.4000000   0.7171664   0.2454200), wk =   0.0063492
        k(   58) = (   0.4000000   0.7171664   0.4908401), wk =   0.0063492
        k(   59) = (   0.4000000   0.7171664   0.7362601), wk =   0.0063492
        k(   60) = (   0.4000000   0.7171664   0.9816801), wk =   0.0063492
        k(   61) = (   0.0000000  -0.2390555   0.2454200), wk =   0.0063492
        k(   62) = (   0.0000000  -0.2390555   0.4908401), wk =   0.0063492
        k(   63) = (   0.0000000  -0.2390555   0.7362601), wk =   0.0063492
        k(   64) = (   0.0000000  -0.2390555   0.9816801), wk =   0.0063492
        k(   65) = (   0.0000000  -0.4781110   0.2454200), wk =   0.0063492
        k(   66) = (   0.0000000  -0.4781110   0.4908401), wk =   0.0063492
        k(   67) = (   0.0000000  -0.4781110   0.7362601), wk =   0.0063492
        k(   68) = (   0.0000000  -0.4781110   0.9816801), wk =   0.0063492
        k(   69) = (   0.0000000  -0.7171664   0.2454200), wk =   0.0063492
        k(   70) = (   0.0000000  -0.7171664   0.4908401), wk =   0.0063492
        k(   71) = (   0.0000000  -0.7171664   0.7362601), wk =   0.0063492
        k(   72) = (   0.0000000  -0.7171664   0.9816801), wk =   0.0063492
        k(   73) = (  -0.2000000   0.0000000   0.2454200), wk =   0.0063492
        k(   74) = (  -0.2000000   0.0000000   0.4908401), wk =   0.0063492
        k(   75) = (  -0.2000000   0.0000000   0.7362601), wk =   0.0063492
        k(   76) = (  -0.2000000   0.0000000   0.9816801), wk =   0.0063492
        k(   77) = (  -0.2000000   0.2390555   0.0000000), wk =   0.0063492
        k(   78) = (  -0.2000000  -0.2390555   0.2454200), wk =   0.0063492
        k(   79) = (  -0.2000000   0.2390555  -0.2454200), wk =   0.0063492
        k(   80) = (   0.2000000  -0.2390555  -0.2454200), wk =   0.0063492
        k(   81) = (  -0.2000000  -0.2390555   0.4908401), wk =   0.0063492
        k(   82) = (  -0.2000000   0.2390555  -0.4908401), wk =   0.0063492
        k(   83) = (   0.2000000  -0.2390555  -0.4908401), wk =   0.0063492
        k(   84) = (  -0.2000000  -0.2390555   0.7362601), wk =   0.0063492
        k(   85) = (  -0.2000000   0.2390555  -0.7362601), wk =   0.0063492
        k(   86) = (   0.2000000  -0.2390555  -0.7362601), wk =   0.0063492
        k(   87) = (  -0.2000000  -0.2390555   0.9816801), wk =   0.0063492
        k(   88) = (  -0.2000000   0.2390555  -0.9816801), wk =   0.0063492
        k(   89) = (   0.2000000  -0.2390555  -0.9816801), wk =   0.0063492
        k(   90) = (  -0.2000000   0.4781110   0.0000000), wk =   0.0063492
        k(   91) = (  -0.2000000  -0.4781110   0.2454200), wk =   0.0063492
        k(   92) = (  -0.2000000   0.4781110  -0.2454200), wk =   0.0063492
        k(   93) = (   0.2000000  -0.4781110  -0.2454200), wk =   0.0063492
        k(   94) = (  -0.2000000  -0.4781110   0.4908401), wk =   0.0063492
        k(   95) = (  -0.2000000   0.4781110  -0.4908401), wk =   0.0063492
        k(   96) = (   0.2000000  -0.4781110  -0.4908401), wk =   0.0063492
        k(   97) = (  -0.2000000  -0.4781110   0.7362601), wk =   0.0063492
        k(   98) = (  -0.2000000   0.4781110  -0.7362601), wk =   0.0063492
        k(   99) = (   0.2000000  -0.4781110  -0.7362601), wk =   0.0063492
        k(  100) = (  -0.2000000  -0.4781110   0.9816801), wk =   0.0063492
        k(  101) = (  -0.2000000   0.4781110  -0.9816801), wk =   0.0063492
        k(  102) = (   0.2000000  -0.4781110  -0.9816801), wk =   0.0063492
        k(  103) = (  -0.2000000   0.7171664   0.0000000), wk =   0.0063492
        k(  104) = (  -0.2000000  -0.7171664   0.2454200), wk =   0.0063492
        k(  105) = (  -0.2000000   0.7171664  -0.2454200), wk =   0.0063492
        k(  106) = (   0.2000000  -0.7171664  -0.2454200), wk =   0.0063492
        k(  107) = (  -0.2000000  -0.7171664   0.4908401), wk =   0.0063492
        k(  108) = (  -0.2000000   0.7171664  -0.4908401), wk =   0.0063492
        k(  109) = (   0.2000000  -0.7171664  -0.4908401), wk =   0.0063492
        k(  110) = (  -0.2000000  -0.7171664   0.7362601), wk =   0.0063492
        k(  111) = (  -0.2000000   0.7171664  -0.7362601), wk =   0.0063492
        k(  112) = (   0.2000000  -0.7171664  -0.7362601), wk =   0.0063492
        k(  113) = (  -0.2000000  -0.7171664   0.9816801), wk =   0.0063492
        k(  114) = (  -0.2000000   0.7171664  -0.9816801), wk =   0.0063492
        k(  115) = (   0.2000000  -0.7171664  -0.9816801), wk =   0.0063492
        k(  116) = (  -0.4000000   0.0000000   0.2454200), wk =   0.0063492
        k(  117) = (  -0.4000000   0.0000000   0.4908401), wk =   0.0063492
        k(  118) = (  -0.4000000   0.0000000   0.7362601), wk =   0.0063492
        k(  119) = (  -0.4000000   0.0000000   0.9816801), wk =   0.0063492
        k(  120) = (  -0.4000000   0.2390555   0.0000000), wk =   0.0063492
        k(  121) = (  -0.4000000  -0.2390555   0.2454200), wk =   0.0063492
        k(  122) = (  -0.4000000   0.2390555  -0.2454200), wk =   0.0063492
        k(  123) = (   0.4000000  -0.2390555  -0.2454200), wk =   0.0063492
        k(  124) = (  -0.4000000  -0.2390555   0.4908401), wk =   0.0063492
        k(  125) = (  -0.4000000   0.2390555  -0.4908401), wk =   0.0063492
        k(  126) = (   0.4000000  -0.2390555  -0.4908401), wk =   0.0063492
        k(  127) = (  -0.4000000  -0.2390555   0.7362601), wk =   0.0063492
        k(  128) = (  -0.4000000   0.2390555  -0.7362601), wk =   0.0063492
        k(  129) = (   0.4000000  -0.2390555  -0.7362601), wk =   0.0063492
        k(  130) = (  -0.4000000  -0.2390555   0.9816801), wk =   0.0063492
        k(  131) = (  -0.4000000   0.2390555  -0.9816801), wk =   0.0063492
        k(  132) = (   0.4000000  -0.2390555  -0.9816801), wk =   0.0063492
        k(  133) = (  -0.4000000   0.4781110   0.0000000), wk =   0.0063492
        k(  134) = (  -0.4000000  -0.4781110   0.2454200), wk =   0.0063492
        k(  135) = (  -0.4000000   0.4781110  -0.2454200), wk =   0.0063492
        k(  136) = (   0.4000000  -0.4781110  -0.2454200), wk =   0.0063492
        k(  137) = (  -0.4000000  -0.4781110   0.4908401), wk =   0.0063492
        k(  138) = (  -0.4000000   0.4781110  -0.4908401), wk =   0.0063492
        k(  139) = (   0.4000000  -0.4781110  -0.4908401), wk =   0.0063492
        k(  140) = (  -0.4000000  -0.4781110   0.7362601), wk =   0.0063492
        k(  141) = (  -0.4000000   0.4781110  -0.7362601), wk =   0.0063492
        k(  142) = (   0.4000000  -0.4781110  -0.7362601), wk =   0.0063492
        k(  143) = (  -0.4000000  -0.4781110   0.9816801), wk =   0.0063492
        k(  144) = (  -0.4000000   0.4781110  -0.9816801), wk =   0.0063492
        k(  145) = (   0.4000000  -0.4781110  -0.9816801), wk =   0.0063492
        k(  146) = (  -0.4000000   0.7171664   0.0000000), wk =   0.0063492
        k(  147) = (  -0.4000000  -0.7171664   0.2454200), wk =   0.0063492
        k(  148) = (  -0.4000000   0.7171664  -0.2454200), wk =   0.0063492
        k(  149) = (   0.4000000  -0.7171664  -0.2454200), wk =   0.0063492
        k(  150) = (  -0.4000000  -0.7171664   0.4908401), wk =   0.0063492
        k(  151) = (  -0.4000000   0.7171664  -0.4908401), wk =   0.0063492
        k(  152) = (   0.4000000  -0.7171664  -0.4908401), wk =   0.0063492
        k(  153) = (  -0.4000000  -0.7171664   0.7362601), wk =   0.0063492
        k(  154) = (  -0.4000000   0.7171664  -0.7362601), wk =   0.0063492
        k(  155) = (   0.4000000  -0.7171664  -0.7362601), wk =   0.0063492
        k(  156) = (  -0.4000000  -0.7171664   0.9816801), wk =   0.0063492
        k(  157) = (  -0.4000000   0.7171664  -0.9816801), wk =   0.0063492
        k(  158) = (   0.4000000  -0.7171664  -0.9816801), wk =   0.0063492

                       cryst. coord.
        k(    1) = (   0.0000000   0.0000000   0.0000000), wk =   0.0031746
        k(    2) = (   0.0000000   0.0000000   0.1111111), wk =   0.0063492
        k(    3) = (   0.0000000   0.0000000   0.2222222), wk =   0.0063492
        k(    4) = (   0.0000000   0.0000000   0.3333333), wk =   0.0063492
        k(    5) = (   0.0000000   0.0000000   0.4444444), wk =   0.0063492
        k(    6) = (   0.0000000   0.1428571   0.0000000), wk =   0.0063492
        k(    7) = (   0.0000000   0.1428571   0.1111111), wk =   0.0063492
        k(    8) = (   0.0000000   0.1428571   0.2222222), wk =   0.0063492
        k(    9) = (   0.0000000   0.1428571   0.3333333), wk =   0.0063492
        k(   10) = (   0.0000000   0.1428571   0.4444444), wk =   0.0063492
        k(   11) = (   0.0000000   0.2857143   0.0000000), wk =   0.0063492
        k(   12) = (   0.0000000   0.2857143   0.1111111), wk =   0.0063492
        k(   13) = (   0.0000000   0.2857143   0.2222222), wk =   0.0063492
        k(   14) = (   0.0000000   0.2857143   0.3333333), wk =   0.0063492
        k(   15) = (   0.0000000   0.2857143   0.4444444), wk =   0.0063492
        k(   16) = (   0.0000000   0.4285714   0.0000000), wk =   0.0063492
        k(   17) = (   0.0000000   0.4285714   0.1111111), wk =   0.0063492
        k(   18) = (   0.0000000   0.4285714   0.2222222), wk =   0.0063492
        k(   19) = (   0.0000000   0.4285714   0.3333333), wk =   0.0063492
        k(   20) = (   0.0000000   0.4285714   0.4444444), wk =   0.0063492
        k(   21) = (   0.2000000   0.0000000   0.0000000), wk =   0.0063492
        k(   22) = (   0.2000000   0.0000000   0.1111111), wk =   0.0063492
        k(   23) = (   0.2000000   0.0000000   0.2222222), wk =   0.0063492
        k(   24) = (   0.2000000   0.0000000   0.3333333), wk =   0.0063492
        k(   25) = (   0.2000000   0.0000000   0.4444444), wk =   0.0063492
        k(   26) = (   0.2000000   0.1428571   0.0000000), wk =   0.0063492
        k(   27) = (   0.2000000   0.1428571   0.1111111), wk =   0.0063492
        k(   28) = (   0.2000000   0.1428571   0.2222222), wk =   0.0063492
        k(   29) = (   0.2000000   0.1428571   0.3333333), wk =   0.0063492
        k(   30) = (   0.2000000   0.1428571   0.4444444), wk =   0.0063492
        k(   31) = (   0.2000000   0.2857143   0.0000000), wk =   0.0063492
        k(   32) = (   0.2000000   0.2857143   0.1111111), wk =   0.0063492
        k(   33) = (   0.2000000   0.2857143   0.2222222), wk =   0.0063492
        k(   34) = (   0.2000000   0.2857143   0.3333333), wk =   0.0063492
        k(   35) = (   0.2000000   0.2857143   0.4444444), wk =   0.0063492
        k(   36) = (   0.2000000   0.4285714   0.0000000), wk =   0.0063492
        k(   37) = (   0.2000000   0.4285714   0.1111111), wk =   0.0063492
        k(   38) = (   0.2000000   0.4285714   0.2222222), wk =   0.0063492
        k(   39) = (   0.2000000   0.4285714   0.3333333), wk =   0.0063492
        k(   40) = (   0.2000000   0.4285714   0.4444444), wk =   0.0063492
        k(   41) = (   0.4000000   0.0000000   0.0000000), wk =   0.0063492
        k(   42) = (   0.4000000   0.0000000   0.1111111), wk =   0.0063492
        k(   43) = (   0.4000000   0.0000000   0.2222222), wk =   0.0063492
        k(   44) = (   0.4000000   0.0000000   0.3333333), wk =   0.0063492
        k(   45) = (   0.4000000   0.0000000   0.4444444), wk =   0.0063492
        k(   46) = (   0.4000000   0.1428571   0.0000000), wk =   0.0063492
        k(   47) = (   0.4000000   0.1428571   0.1111111), wk =   0.0063492
        k(   48) = (   0.4000000   0.1428571   0.2222222), wk =   0.0063492
        k(   49) = (   0.4000000   0.1428571   0.3333333), wk =   0.0063492
        k(   50) = (   0.4000000   0.1428571   0.4444444), wk =   0.0063492
        k(   51) = (   0.4000000   0.2857143   0.0000000), wk =   0.0063492
        k(   52) = (   0.4000000   0.2857143   0.1111111), wk =   0.0063492
        k(   53) = (   0.4000000   0.2857143   0.2222222), wk =   0.0063492
        k(   54) = (   0.4000000   0.2857143   0.3333333), wk =   0.0063492
        k(   55) = (   0.4000000   0.2857143   0.4444444), wk =   0.0063492
        k(   56) = (   0.4000000   0.4285714   0.0000000), wk =   0.0063492
        k(   57) = (   0.4000000   0.4285714   0.1111111), wk =   0.0063492
        k(   58) = (   0.4000000   0.4285714   0.2222222), wk =   0.0063492
        k(   59) = (   0.4000000   0.4285714   0.3333333), wk =   0.0063492
        k(   60) = (   0.4000000   0.4285714   0.4444444), wk =   0.0063492
        k(   61) = (   0.0000000  -0.1428571   0.1111111), wk =   0.0063492
        k(   62) = (   0.0000000  -0.1428571   0.2222222), wk =   0.0063492
        k(   63) = (   0.0000000  -0.1428571   0.3333333), wk =   0.0063492
        k(   64) = (   0.0000000  -0.1428571   0.4444444), wk =   0.0063492
        k(   65) = (   0.0000000  -0.2857143   0.1111111), wk =   0.0063492
        k(   66) = (   0.0000000  -0.2857143   0.2222222), wk =   0.0063492
        k(   67) = (   0.0000000  -0.2857143   0.3333333), wk =   0.0063492
        k(   68) = (   0.0000000  -0.2857143   0.4444444), wk =   0.0063492
        k(   69) = (   0.0000000  -0.4285714   0.1111111), wk =   0.0063492
        k(   70) = (   0.0000000  -0.4285714   0.2222222), wk =   0.0063492
        k(   71) = (   0.0000000  -0.4285714   0.3333333), wk =   0.0063492
        k(   72) = (   0.0000000  -0.4285714   0.4444444), wk =   0.0063492
        k(   73) = (  -0.2000000   0.0000000   0.1111111), wk =   0.0063492
        k(   74) = (  -0.2000000   0.0000000   0.2222222), wk =   0.0063492
        k(   75) = (  -0.2000000   0.0000000   0.3333333), wk =   0.0063492
        k(   76) = (  -0.2000000   0.0000000   0.4444444), wk =   0.0063492
        k(   77) = (  -0.2000000   0.1428571   0.0000000), wk =   0.0063492
        k(   78) = (  -0.2000000  -0.1428571   0.1111111), wk =   0.0063492
        k(   79) = (  -0.2000000   0.1428571  -0.1111111), wk =   0.0063492
        k(   80) = (   0.2000000  -0.1428571  -0.1111111), wk =   0.0063492
        k(   81) = (  -0.2000000  -0.1428571   0.2222222), wk =   0.0063492
        k(   82) = (  -0.2000000   0.1428571  -0.2222222), wk =   0.0063492
        k(   83) = (   0.2000000  -0.1428571  -0.2222222), wk =   0.0063492
        k(   84) = (  -0.2000000  -0.1428571   0.3333333), wk =   0.0063492
        k(   85) = (  -0.2000000   0.1428571  -0.3333333), wk =   0.0063492
        k(   86) = (   0.2000000  -0.1428571  -0.3333333), wk =   0.0063492
        k(   87) = (  -0.2000000  -0.1428571   0.4444444), wk =   0.0063492
        k(   88) = (  -0.2000000   0.1428571  -0.4444444), wk =   0.0063492
        k(   89) = (   0.2000000  -0.1428571  -0.4444444), wk =   0.0063492
        k(   90) = (  -0.2000000   0.2857143   0.0000000), wk =   0.0063492
        k(   91) = (  -0.2000000  -0.2857143   0.1111111), wk =   0.0063492
        k(   92) = (  -0.2000000   0.2857143  -0.1111111), wk =   0.0063492
        k(   93) = (   0.2000000  -0.2857143  -0.1111111), wk =   0.0063492
        k(   94) = (  -0.2000000  -0.2857143   0.2222222), wk =   0.0063492
        k(   95) = (  -0.2000000   0.2857143  -0.2222222), wk =   0.0063492
        k(   96) = (   0.2000000  -0.2857143  -0.2222222), wk =   0.0063492
        k(   97) = (  -0.2000000  -0.2857143   0.3333333), wk =   0.0063492
        k(   98) = (  -0.2000000   0.2857143  -0.3333333), wk =   0.0063492
        k(   99) = (   0.2000000  -0.2857143  -0.3333333), wk =   0.0063492
        k(  100) = (  -0.2000000  -0.2857143   0.4444444), wk =   0.0063492
        k(  101) = (  -0.2000000   0.2857143  -0.4444444), wk =   0.0063492
        k(  102) = (   0.2000000  -0.2857143  -0.4444444), wk =   0.0063492
        k(  103) = (  -0.2000000   0.4285714   0.0000000), wk =   0.0063492
        k(  104) = (  -0.2000000  -0.4285714   0.1111111), wk =   0.0063492
        k(  105) = (  -0.2000000   0.4285714  -0.1111111), wk =   0.0063492
        k(  106) = (   0.2000000  -0.4285714  -0.1111111), wk =   0.0063492
        k(  107) = (  -0.2000000  -0.4285714   0.2222222), wk =   0.0063492
        k(  108) = (  -0.2000000   0.4285714  -0.2222222), wk =   0.0063492
        k(  109) = (   0.2000000  -0.4285714  -0.2222222), wk =   0.0063492
        k(  110) = (  -0.2000000  -0.4285714   0.3333333), wk =   0.0063492
        k(  111) = (  -0.2000000   0.4285714  -0.3333333), wk =   0.0063492
        k(  112) = (   0.2000000  -0.4285714  -0.3333333), wk =   0.0063492
        k(  113) = (  -0.2000000  -0.4285714   0.4444444), wk =   0.0063492
        k(  114) = (  -0.2000000   0.4285714  -0.4444444), wk =   0.0063492
        k(  115) = (   0.2000000  -0.4285714  -0.4444444), wk =   0.0063492
        k(  116) = (  -0.4000000   0.0000000   0.1111111), wk =   0.0063492
        k(  117) = (  -0.4000000   0.0000000   0.2222222), wk =   0.0063492
        k(  118) = (  -0.4000000   0.0000000   0.3333333), wk =   0.0063492
        k(  119) = (  -0.4000000   0.0000000   0.4444444), wk =   0.0063492
        k(  120) = (  -0.4000000   0.1428571   0.0000000), wk =   0.0063492
        k(  121) = (  -0.4000000  -0.1428571   0.1111111), wk =   0.0063492
        k(  122) = (  -0.4000000   0.1428571  -0.1111111), wk =   0.0063492
        k(  123) = (   0.4000000  -0.1428571  -0.1111111), wk =   0.0063492
        k(  124) = (  -0.4000000  -0.1428571   0.2222222), wk =   0.0063492
        k(  125) = (  -0.4000000   0.1428571  -0.2222222), wk =   0.0063492
        k(  126) = (   0.4000000  -0.1428571  -0.2222222), wk =   0.0063492
        k(  127) = (  -0.4000000  -0.1428571   0.3333333), wk =   0.0063492
        k(  128) = (  -0.4000000   0.1428571  -0.3333333), wk =   0.0063492
        k(  129) = (   0.4000000  -0.1428571  -0.3333333), wk =   0.0063492
        k(  130) = (  -0.4000000  -0.1428571   0.4444444), wk =   0.0063492
        k(  131) = (  -0.4000000   0.1428571  -0.4444444), wk =   0.0063492
        k(  132) = (   0.4000000  -0.1428571  -0.4444444), wk =   0.0063492
        k(  133) = (  -0.4000000   0.2857143   0.0000000), wk =   0.0063492
        k(  134) = (  -0.4000000  -0.2857143   0.1111111), wk =   0.0063492
        k(  135) = (  -0.4000000   0.2857143  -0.1111111), wk =   0.0063492
        k(  136) = (   0.4000000  -0.2857143  -0.1111111), wk =   0.0063492
        k(  137) = (  -0.4000000  -0.2857143   0.2222222), wk =   0.0063492
        k(  138) = (  -0.4000000   0.2857143  -0.2222222), wk =   0.0063492
        k(  139) = (   0.4000000  -0.2857143  -0.2222222), wk =   0.0063492
        k(  140) = (  -0.4000000  -0.2857143   0.3333333), wk =   0.0063492
        k(  141) = (  -0.4000000   0.2857143  -0.3333333), wk =   0.0063492
        k(  142) = (   0.4000000  -0.2857143  -0.3333333), wk =   0.0063492
        k(  143) = (  -0.4000000  -0.2857143   0.4444444), wk =   0.0063492
        k(  144) = (  -0.4000000   0.2857143  -0.4444444), wk =   0.0063492
        k(  145) = (   0.4000000  -0.2857143  -0.4444444), wk =   0.0063492
        k(  146) = (  -0.4000000   0.4285714   0.0000000), wk =   0.0063492
        k(  147) = (  -0.4000000  -0.4285714   0.1111111), wk =   0.0063492
        k(  148) = (  -0.4000000   0.4285714  -0.1111111), wk =   0.0063492
        k(  149) = (   0.4000000  -0.4285714  -0.1111111), wk =   0.0063492
        k(  150) = (  -0.4000000  -0.4285714   0.2222222), wk =   0.0063492
        k(  151) = (  -0.4000000   0.4285714  -0.2222222), wk =   0.0063492
        k(  152) = (   0.4000000  -0.4285714  -0.2222222), wk =   0.0063492
        k(  153) = (  -0.4000000  -0.4285714   0.3333333), wk =   0.0063492
        k(  154) = (  -0.4000000   0.4285714  -0.3333333), wk =   0.0063492
        k(  155) = (   0.4000000  -0.4285714  -0.3333333), wk =   0.0063492
        k(  156) = (  -0.4000000  -0.4285714   0.4444444), wk =   0.0063492
        k(  157) = (  -0.4000000   0.4285714  -0.4444444), wk =   0.0063492
        k(  158) = (   0.4000000  -0.4285714  -0.4444444), wk =   0.0063492

     Dense  grid:  1427303 G-vectors     FFT dimensions: ( 216, 135, 100)

     Smooth grid:   321883 G-vectors     FFT dimensions: ( 135,  80,  60)

     Dynamical RAM for                 wfc:       2.91 MB

     Dynamical RAM for     wfc (w. buffer):     923.63 MB

     Dynamical RAM for           str. fact:       3.63 MB

     Dynamical RAM for           local pot:       0.00 MB

     Dynamical RAM for          nlocal pot:       7.16 MB

     Dynamical RAM for                qrad:      10.54 MB

     Dynamical RAM for          rho,v,vnew:      12.12 MB

     Dynamical RAM for               rhoin:       4.04 MB

     Dynamical RAM for            rho*nmix:      29.04 MB

     Dynamical RAM for           G-vectors:       3.51 MB

     Dynamical RAM for          h,s,v(r/c):       2.38 MB

     Dynamical RAM for          <psi|beta>:       0.49 MB

     Dynamical RAM for                 psi:       5.83 MB

     Dynamical RAM for                hpsi:       5.83 MB

     Dynamical RAM for                spsi:       5.83 MB

     Dynamical RAM for      wfcinit/wfcrot:       7.43 MB

     Dynamical RAM for           addusdens:     184.22 MB

     Dynamical RAM for          addusforce:     211.57 MB

     Dynamical RAM for         addusstress:     183.76 MB

     Estimated static dynamical RAM per process >    1004.88 MB

     Estimated max dynamical RAM per process >       1.19 GB

     Estimated total dynamical RAM >      28.51 GB

     Check: negative core charge=   -0.000003
     Generating pointlists ...
     new r_m :   0.0750 (alat units)  1.5490 (a.u.) for type    1
     new r_m :   0.0926 (alat units)  1.9111 (a.u.) for type    2
     new r_m :   0.0582 (alat units)  1.2023 (a.u.) for type    3
     new r_m :   0.0582 (alat units)  1.2023 (a.u.) for type    4

     Initial potential from superposition of free atoms

     starting charge  188.99132, renormalised to  189.00000
     Starting wfcs are  137 randomized atomic wfcs
     Checking if some PAW data can be deallocated... 
       PAW data deallocated on   20 nodes for type:  1
       PAW data deallocated on    8 nodes for type:  3

     total cpu time spent up to now is     1402.4 secs

     Self-consistent Calculation

     iteration #  1     ecut=   100.00 Ry     beta= 0.40
     Davidson diagonalization with overlap
     ethr =  1.00E-02,  avg # of iterations =  2.8

     negative rho (up, down):  0.000E+00 8.467E-05

     total cpu time spent up to now is     5176.3 secs

     total energy              =   -2123.74106238 Ry
     estimated scf accuracy    <       6.98588885 Ry

     total magnetization       =    19.00 Bohr mag/cell
     absolute magnetization    =    19.00 Bohr mag/cell

     iteration #  2     ecut=   100.00 Ry     beta= 0.40
     Davidson diagonalization with overlap
     ethr =  3.70E-03,  avg # of iterations =  2.0

     negative rho (up, down):  0.000E+00 4.033E-05

     total cpu time spent up to now is     8887.8 secs

     total energy              =   -2121.40635886 Ry
     estimated scf accuracy    <      28.80949655 Ry

     total magnetization       =     7.70 Bohr mag/cell
     absolute magnetization    =     8.10 Bohr mag/cell

     iteration #  3     ecut=   100.00 Ry     beta= 0.40
     Davidson diagonalization with overlap
     ethr =  3.70E-03,  avg # of iterations =  2.0

     negative rho (up, down):  0.000E+00 1.251E-04

     total cpu time spent up to now is    11999.7 secs

     total energy              =   -2125.94737441 Ry
     estimated scf accuracy    <       2.63251846 Ry

     total magnetization       =    19.00 Bohr mag/cell
     absolute magnetization    =    19.00 Bohr mag/cell

     iteration #  4     ecut=   100.00 Ry     beta= 0.40
     Davidson diagonalization with overlap
     ethr =  1.39E-03,  avg # of iterations =  2.0

     negative rho (up, down):  0.000E+00 1.288E-04

     total cpu time spent up to now is    15031.5 secs

     total energy              =   -2125.45579516 Ry
     estimated scf accuracy    <      17.97774981 Ry

     total magnetization       =    12.91 Bohr mag/cell
     absolute magnetization    =    13.17 Bohr mag/cell

     iteration #  5     ecut=   100.00 Ry     beta= 0.40
     Davidson diagonalization with overlap
     ethr =  1.39E-03,  avg # of iterations =  1.0

     negative rho (up, down):  0.000E+00 1.654E-04

     total cpu time spent up to now is    17880.1 secs

     total energy              =   -2126.01841010 Ry
     estimated scf accuracy    <       1.68564196 Ry

     total magnetization       =    19.00 Bohr mag/cell
     absolute magnetization    =    19.00 Bohr mag/cell

     iteration #  6     ecut=   100.00 Ry     beta= 0.40
     Davidson diagonalization with overlap
     ethr =  8.92E-04,  avg # of iterations =  1.0

     negative rho (up, down):  0.000E+00 2.132E-04

     total cpu time spent up to now is    20737.6 secs

     total energy              =   -2126.01062264 Ry
     estimated scf accuracy    <       1.32849119 Ry

     total magnetization       =    19.00 Bohr mag/cell
     absolute magnetization    =    19.00 Bohr mag/cell

     iteration #  7     ecut=   100.00 Ry     beta= 0.40
     Davidson diagonalization with overlap
     ethr =  7.03E-04,  avg # of iterations =  1.0

     negative rho (up, down):  0.000E+00 4.463E-04

     total cpu time spent up to now is    23600.4 secs

     total energy              =   -2125.96234084 Ry
     estimated scf accuracy    <       1.29746901 Ry

     total magnetization       =    19.00 Bohr mag/cell
     absolute magnetization    =    19.00 Bohr mag/cell

     iteration #  8     ecut=   100.00 Ry     beta= 0.40
     Davidson diagonalization with overlap
     ethr =  6.86E-04,  avg # of iterations =  1.0

     negative rho (up, down):  0.000E+00 7.160E-04

     total cpu time spent up to now is    26459.9 secs

     total energy              =   -2125.92788677 Ry
     estimated scf accuracy    <       0.58168778 Ry

     total magnetization       =    19.00 Bohr mag/cell
     absolute magnetization    =    19.01 Bohr mag/cell

     iteration #  9     ecut=   100.00 Ry     beta= 0.40
     Davidson diagonalization with overlap
     ethr =  3.08E-04,  avg # of iterations =  1.9

     negative rho (up, down):  0.000E+00 8.110E-04

     total cpu time spent up to now is    29472.5 secs

     total energy              =   -2125.96358086 Ry
     estimated scf accuracy    <       0.22946919 Ry

     total magnetization       =    19.00 Bohr mag/cell
     absolute magnetization    =    19.01 Bohr mag/cell

     iteration # 10     ecut=   100.00 Ry     beta= 0.40
     Davidson diagonalization with overlap
     c_bands:  1 eigenvalues not converged
     c_bands:  1 eigenvalues not converged
     c_bands:  2 eigenvalues not converged
     c_bands:  1 eigenvalues not converged
     c_bands:  1 eigenvalues not converged
     ethr =  1.21E-04,  avg # of iterations =  7.6

     negative rho (up, down):  0.000E+00 8.632E-04

     total cpu time spent up to now is    33084.5 secs

     total energy              =   -2125.96824378 Ry
     estimated scf accuracy    <       0.24358203 Ry

     total magnetization       =    19.00 Bohr mag/cell
     absolute magnetization    =    19.02 Bohr mag/cell

     iteration # 11     ecut=   100.00 Ry     beta= 0.40
     Davidson diagonalization with overlap
     ethr =  1.21E-04,  avg # of iterations =  1.1

     negative rho (up, down):  0.000E+00 8.777E-04

     total cpu time spent up to now is    35956.1 secs

     total energy              =   -2125.97284724 Ry
     estimated scf accuracy    <       0.07605410 Ry

     total magnetization       =    19.00 Bohr mag/cell
     absolute magnetization    =    19.02 Bohr mag/cell

     iteration # 12     ecut=   100.00 Ry     beta= 0.40
     Davidson diagonalization with overlap
     c_bands:  1 eigenvalues not converged
     c_bands:  1 eigenvalues not converged
     c_bands:  1 eigenvalues not converged
     c_bands:  1 eigenvalues not converged
     c_bands:  1 eigenvalues not converged
     c_bands:  1 eigenvalues not converged
     c_bands:  1 eigenvalues not converged
     c_bands:  1 eigenvalues not converged
     c_bands:  1 eigenvalues not converged
     c_bands:  1 eigenvalues not converged
     c_bands:  1 eigenvalues not converged
     c_bands:  1 eigenvalues not converged
     c_bands:  1 eigenvalues not converged
     c_bands:  1 eigenvalues not converged
     c_bands:  1 eigenvalues not converged
     c_bands:  1 eigenvalues not converged
     c_bands:  1 eigenvalues not converged
     c_bands:  1 eigenvalues not converged
     c_bands:  1 eigenvalues not converged
     c_bands:  1 eigenvalues not converged
     c_bands:  1 eigenvalues not converged
     c_bands:  2 eigenvalues not converged
     c_bands:  1 eigenvalues not converged
     c_bands:  2 eigenvalues not converged
     c_bands:  1 eigenvalues not converged
     c_bands:  1 eigenvalues not converged
     ethr =  4.02E-05,  avg # of iterations =  9.0

     negative rho (up, down):  0.000E+00 9.893E-04

     total cpu time spent up to now is    39707.8 secs

     total energy              =   -2125.97597289 Ry
     estimated scf accuracy    <       0.01645868 Ry

     total magnetization       =    19.00 Bohr mag/cell
     absolute magnetization    =    19.03 Bohr mag/cell

     iteration # 13     ecut=   100.00 Ry     beta= 0.40
     Davidson diagonalization with overlap
     c_bands:  1 eigenvalues not converged
     c_bands:  1 eigenvalues not converged
     c_bands:  1 eigenvalues not converged
     c_bands:  2 eigenvalues not converged
     c_bands:  1 eigenvalues not converged
     c_bands:  1 eigenvalues not converged
     c_bands:  1 eigenvalues not converged
     c_bands:  1 eigenvalues not converged
     c_bands:  1 eigenvalues not converged
     c_bands:  1 eigenvalues not converged
     c_bands:  1 eigenvalues not converged
     c_bands:  1 eigenvalues not converged
     c_bands:  1 eigenvalues not converged
     c_bands:  2 eigenvalues not converged
     c_bands:  1 eigenvalues not converged
     c_bands:  1 eigenvalues not converged
     c_bands:  1 eigenvalues not converged
     c_bands:  1 eigenvalues not converged
     c_bands:  1 eigenvalues not converged
     c_bands:  1 eigenvalues not converged
     c_bands:  1 eigenvalues not converged
     c_bands:  1 eigenvalues not converged
     c_bands:  1 eigenvalues not converged
     c_bands:  1 eigenvalues not converged
     c_bands:  1 eigenvalues not converged
     c_bands:  1 eigenvalues not converged
     c_bands:  1 eigenvalues not converged
     ethr =  8.71E-06,  avg # of iterations = 12.7

     negative rho (up, down):  0.000E+00 9.880E-04

     total cpu time spent up to now is    44050.6 secs

     total energy              =   -2125.97701367 Ry
     estimated scf accuracy    <       0.01775568 Ry

     total magnetization       =    19.00 Bohr mag/cell
     absolute magnetization    =    19.04 Bohr mag/cell

     iteration # 14     ecut=   100.00 Ry     beta= 0.40
     Davidson diagonalization with overlap
     ethr =  8.71E-06,  avg # of iterations =  1.1

     negative rho (up, down):  0.000E+00 9.879E-04

     total cpu time spent up to now is    46912.9 secs

     total energy              =   -2125.97763474 Ry
     estimated scf accuracy    <       0.00676722 Ry

     total magnetization       =    19.00 Bohr mag/cell
     absolute magnetization    =    19.05 Bohr mag/cell

     iteration # 15     ecut=   100.00 Ry     beta= 0.40
     Davidson diagonalization with overlap
     c_bands:  1 eigenvalues not converged
     c_bands:  1 eigenvalues not converged
     c_bands:  1 eigenvalues not converged
     c_bands:  1 eigenvalues not converged
     ethr =  3.58E-06,  avg # of iterations =  2.1

     negative rho (up, down):  0.000E+00 9.854E-04

     total cpu time spent up to now is    49906.2 secs

     total energy              =   -2125.97770305 Ry
     estimated scf accuracy    <       0.00583775 Ry

     total magnetization       =    19.00 Bohr mag/cell
     absolute magnetization    =    19.05 Bohr mag/cell

     iteration # 16     ecut=   100.00 Ry     beta= 0.40
     Davidson diagonalization with overlap
     c_bands:  1 eigenvalues not converged
     ethr =  3.09E-06,  avg # of iterations =  1.5

     negative rho (up, down):  0.000E+00 9.781E-04

     total cpu time spent up to now is    52812.2 secs

     total energy              =   -2125.97782147 Ry
     estimated scf accuracy    <       0.00132653 Ry

     total magnetization       =    19.00 Bohr mag/cell
     absolute magnetization    =    19.05 Bohr mag/cell

     iteration # 17     ecut=   100.00 Ry     beta= 0.40
     Davidson diagonalization with overlap
     c_bands:  1 eigenvalues not converged
     c_bands:  1 eigenvalues not converged
     ethr =  7.02E-07,  avg # of iterations =  3.9

     negative rho (up, down):  0.000E+00 9.758E-04

     total cpu time spent up to now is    56236.8 secs

     total energy              =   -2125.97800600 Ry
     estimated scf accuracy    <       0.00017207 Ry

     total magnetization       =    19.00 Bohr mag/cell
     absolute magnetization    =    19.05 Bohr mag/cell

     iteration # 18     ecut=   100.00 Ry     beta= 0.40
     Davidson diagonalization with overlap
     c_bands:  1 eigenvalues not converged
     c_bands:  1 eigenvalues not converged
     c_bands:  1 eigenvalues not converged
     c_bands:  1 eigenvalues not converged
     c_bands:  1 eigenvalues not converged
     ethr =  9.10E-08,  avg # of iterations =  5.4

     negative rho (up, down):  0.000E+00 9.709E-04

     total cpu time spent up to now is    60833.9 secs

     total energy              =   -2125.97808599 Ry
     estimated scf accuracy    <       0.00009331 Ry

     total magnetization       =    19.00 Bohr mag/cell
     absolute magnetization    =    19.05 Bohr mag/cell

     iteration # 19     ecut=   100.00 Ry     beta= 0.40
     Davidson diagonalization with overlap
     ethr =  4.94E-08,  avg # of iterations =  1.7

     negative rho (up, down):  0.000E+00 9.642E-04

     total cpu time spent up to now is    63791.0 secs

     total energy              =   -2125.97810130 Ry
     estimated scf accuracy    <       0.00002125 Ry

     total magnetization       =    19.00 Bohr mag/cell
     absolute magnetization    =    19.06 Bohr mag/cell

     iteration # 20     ecut=   100.00 Ry     beta= 0.40
     Davidson diagonalization with overlap
     c_bands:  1 eigenvalues not converged
     ethr =  1.12E-08,  avg # of iterations =  2.3

     negative rho (up, down):  0.000E+00 9.637E-04

     total cpu time spent up to now is    67066.9 secs

     total energy              =   -2125.97810724 Ry
     estimated scf accuracy    <       0.00003831 Ry

     total magnetization       =    19.00 Bohr mag/cell
     absolute magnetization    =    19.06 Bohr mag/cell

     iteration # 21     ecut=   100.00 Ry     beta= 0.40
     Davidson diagonalization with overlap
     ethr =  1.12E-08,  avg # of iterations =  1.9

     negative rho (up, down):  0.000E+00 9.627E-04

     total cpu time spent up to now is    70085.9 secs

     total energy              =   -2125.97811184 Ry
     estimated scf accuracy    <       0.00013147 Ry

     total magnetization       =    19.00 Bohr mag/cell
     absolute magnetization    =    19.06 Bohr mag/cell

     iteration # 22     ecut=   100.00 Ry     beta= 0.40
     Davidson diagonalization with overlap
     ethr =  1.12E-08,  avg # of iterations =  1.5

     negative rho (up, down):  0.000E+00 9.625E-04

     total cpu time spent up to now is    73024.1 secs

     total energy              =   -2125.97811627 Ry
     estimated scf accuracy    <       0.00000526 Ry

     total magnetization       =    19.00 Bohr mag/cell
     absolute magnetization    =    19.06 Bohr mag/cell

     iteration # 23     ecut=   100.00 Ry     beta= 0.40
     Davidson diagonalization with overlap
     ethr =  2.78E-09,  avg # of iterations =  2.0

     negative rho (up, down):  0.000E+00 9.624E-04

     total cpu time spent up to now is    76168.5 secs

     total energy              =   -2125.97811784 Ry
     estimated scf accuracy    <       0.00001932 Ry

     total magnetization       =    19.00 Bohr mag/cell
     absolute magnetization    =    19.06 Bohr mag/cell

     iteration # 24     ecut=   100.00 Ry     beta= 0.40
     Davidson diagonalization with overlap
     ethr =  2.78E-09,  avg # of iterations =  1.0

     negative rho (up, down):  0.000E+00 9.633E-04

     total cpu time spent up to now is    79025.8 secs

     total energy              =   -2125.97811863 Ry
     estimated scf accuracy    <       0.00000213 Ry

     total magnetization       =    19.00 Bohr mag/cell
     absolute magnetization    =    19.06 Bohr mag/cell

     iteration # 25     ecut=   100.00 Ry     beta= 0.40
     Davidson diagonalization with overlap
     ethr =  1.13E-09,  avg # of iterations =  2.0

     negative rho (up, down):  0.000E+00 9.638E-04

     total cpu time spent up to now is    82128.1 secs

     total energy              =   -2125.97811920 Ry
     estimated scf accuracy    <       0.00000106 Ry

     total magnetization       =    19.00 Bohr mag/cell
     absolute magnetization    =    19.06 Bohr mag/cell

     iteration # 26     ecut=   100.00 Ry     beta= 0.40
     Davidson diagonalization with overlap
     ethr =  5.59E-10,  avg # of iterations =  2.1

     negative rho (up, down):  0.000E+00 9.639E-04

     total cpu time spent up to now is    85176.8 secs

     total energy              =   -2125.97811930 Ry
     estimated scf accuracy    <       0.00000103 Ry

     total magnetization       =    19.00 Bohr mag/cell
     absolute magnetization    =    19.06 Bohr mag/cell

     iteration # 27     ecut=   100.00 Ry     beta= 0.40
     Davidson diagonalization with overlap
     ethr =  5.44E-10,  avg # of iterations =  1.7

     negative rho (up, down):  0.000E+00 9.645E-04

     total cpu time spent up to now is    88134.2 secs

     total energy              =   -2125.97811945 Ry
     estimated scf accuracy    <       0.00000212 Ry

     total magnetization       =    19.00 Bohr mag/cell
     absolute magnetization    =    19.06 Bohr mag/cell

     iteration # 28     ecut=   100.00 Ry     beta= 0.40
     Davidson diagonalization with overlap
     ethr =  5.44E-10,  avg # of iterations =  1.0

     negative rho (up, down):  0.000E+00 9.646E-04

     total cpu time spent up to now is    90995.1 secs

     total energy              =   -2125.97811954 Ry
     estimated scf accuracy    <       0.00000063 Ry

     total magnetization       =    19.00 Bohr mag/cell
     absolute magnetization    =    19.06 Bohr mag/cell

     iteration # 29     ecut=   100.00 Ry     beta= 0.40
     Davidson diagonalization with overlap
     ethr =  3.34E-10,  avg # of iterations =  1.0

     negative rho (up, down):  0.000E+00 9.646E-04

     total cpu time spent up to now is    93854.8 secs

     total energy              =   -2125.97811956 Ry
     estimated scf accuracy    <       0.00000034 Ry

     total magnetization       =    19.00 Bohr mag/cell
     absolute magnetization    =    19.06 Bohr mag/cell

     iteration # 30     ecut=   100.00 Ry     beta= 0.40
     Davidson diagonalization with overlap
     ethr =  1.78E-10,  avg # of iterations =  1.5

     negative rho (up, down):  0.000E+00 9.644E-04

     total cpu time spent up to now is    96790.3 secs

     total energy              =   -2125.97811960 Ry
     estimated scf accuracy    <       0.00000011 Ry

     total magnetization       =    19.00 Bohr mag/cell
     absolute magnetization    =    19.06 Bohr mag/cell

     iteration # 31     ecut=   100.00 Ry     beta= 0.40
     Davidson diagonalization with overlap
     ethr =  5.84E-11,  avg # of iterations =  3.7

     negative rho (up, down):  0.000E+00 9.643E-04

     total cpu time spent up to now is    99449.5 secs

     total energy              =   -2125.97811961 Ry
     estimated scf accuracy    <       0.00000010 Ry

     total magnetization       =    19.00 Bohr mag/cell
     absolute magnetization    =    19.06 Bohr mag/cell

     iteration # 32     ecut=   100.00 Ry     beta= 0.40
     Davidson diagonalization with overlap
     ethr =  5.06E-11,  avg # of iterations =  2.0

     negative rho (up, down):  0.000E+00 9.643E-04

     total cpu time spent up to now is   100797.6 secs

     total energy              =   -2125.97811963 Ry
     estimated scf accuracy    <          9.4E-09 Ry

     total magnetization       =    19.00 Bohr mag/cell
     absolute magnetization    =    19.06 Bohr mag/cell

     iteration # 33     ecut=   100.00 Ry     beta= 0.40
     Davidson diagonalization with overlap
     ethr =  4.95E-12,  avg # of iterations =  3.8

     negative rho (up, down):  0.000E+00 9.643E-04

     total cpu time spent up to now is   104328.9 secs

     total energy              =   -2125.97811964 Ry
     estimated scf accuracy    <       0.00000001 Ry

     total magnetization       =    19.00 Bohr mag/cell
     absolute magnetization    =    19.06 Bohr mag/cell

     iteration # 34     ecut=   100.00 Ry     beta= 0.40
     Davidson diagonalization with overlap
     ethr =  4.95E-12,  avg # of iterations =  1.4

     negative rho (up, down):  0.000E+00 9.644E-04

     total cpu time spent up to now is   107249.3 secs

     total energy              =   -2125.97811964 Ry
     estimated scf accuracy    <          1.7E-09 Ry

     total magnetization       =    19.00 Bohr mag/cell
     absolute magnetization    =    19.06 Bohr mag/cell

     iteration # 35     ecut=   100.00 Ry     beta= 0.40
     Davidson diagonalization with overlap
     ethr =  9.26E-13,  avg # of iterations =  2.9

     negative rho (up, down):  0.000E+00 9.644E-04

     total cpu time spent up to now is   110390.0 secs

     total energy              =   -2125.97811964 Ry
     estimated scf accuracy    <          2.1E-09 Ry

     total magnetization       =    19.00 Bohr mag/cell
     absolute magnetization    =    19.06 Bohr mag/cell

     iteration # 36     ecut=   100.00 Ry     beta= 0.40
     Davidson diagonalization with overlap
     ethr =  9.26E-13,  avg # of iterations =  2.0

     negative rho (up, down):  0.000E+00 9.644E-04

     total cpu time spent up to now is   113464.4 secs

     total energy              =   -2125.97811964 Ry
     estimated scf accuracy    <          1.7E-09 Ry

     total magnetization       =    19.00 Bohr mag/cell
     absolute magnetization    =    19.06 Bohr mag/cell

     iteration # 37     ecut=   100.00 Ry     beta= 0.40
     Davidson diagonalization with overlap
     ethr =  8.81E-13,  avg # of iterations =  1.0

     negative rho (up, down):  0.000E+00 9.644E-04

     Magnetic moment per site:
     atom:    1    charge:    7.9979    magn:    0.0008    constr:    0.0000
     atom:    2    charge:   13.0058    magn:    3.6709    constr:    0.0000
     atom:    3    charge:   13.0010    magn:    3.6920    constr:    0.0000
     atom:    4    charge:   13.0058    magn:    3.6709    constr:    0.0000
     atom:    5    charge:   13.0011    magn:    3.6919    constr:    0.0000
     atom:    6    charge:    0.8162    magn:    0.0066    constr:    0.0000
     atom:    7    charge:    0.8146    magn:    0.0087    constr:    0.0000
     atom:    8    charge:    0.8162    magn:    0.0066    constr:    0.0000
     atom:    9    charge:    0.8146    magn:    0.0087    constr:    0.0000
     atom:   10    charge:    4.2648    magn:    0.0802    constr:    0.0000
     atom:   11    charge:    4.2625    magn:    0.1301    constr:    0.0000
     atom:   12    charge:    4.2648    magn:    0.0802    constr:    0.0000
     atom:   13    charge:    4.2625    magn:    0.1301    constr:    0.0000
     atom:   14    charge:    4.2076    magn:    0.1462    constr:    0.0000
     atom:   15    charge:    4.2084    magn:    0.0960    constr:    0.0000
     atom:   16    charge:    4.2076    magn:    0.1462    constr:    0.0000
     atom:   17    charge:    4.2084    magn:    0.0960    constr:    0.0000
     atom:   18    charge:    4.2020    magn:    0.1204    constr:    0.0000
     atom:   19    charge:    4.1969    magn:    0.1481    constr:    0.0000
     atom:   20    charge:    4.2007    magn:    0.1352    constr:    0.0000
     atom:   21    charge:    4.1987    magn:    0.1569    constr:    0.0000
     atom:   22    charge:    4.2020    magn:    0.1204    constr:    0.0000
     atom:   23    charge:    4.1969    magn:    0.1481    constr:    0.0000
     atom:   24    charge:    4.2007    magn:    0.1352    constr:    0.0000
     atom:   25    charge:    4.1987    magn:    0.1569    constr:    0.0000

     total cpu time spent up to now is   116310.2 secs

     End of self-consistent calculation

 ------ SPIN UP ------------


          k = 0.0000 0.0000 0.0000 ( 40219 PWs)   bands (ev):

   -86.5192 -86.5191 -86.3968 -86.3968 -52.6429 -52.6429 -52.5707 -52.5707
   -52.4810 -52.4809 -52.3859 -52.3859 -52.3279 -52.3279 -52.2545 -52.2544
   -45.7536 -17.7400 -17.7252 -17.6977 -16.5847 -16.4247 -16.3923 -16.2882
   -14.4306 -14.4176 -14.3525 -14.3372 -14.1517 -14.1104 -14.0831 -14.0482
   -14.0319 -14.0117 -13.9183 -13.9026  -4.9429  -4.5239  -4.4684  -4.1711
    -2.8704  -2.6160  -2.5449  -2.4351  -2.1040  -2.0197  -1.9919  -1.9269
    -1.8038  -1.7013  -1.3999  -1.1533  -1.0938  -1.0765  -0.6827  -0.6370
    -0.5273  -0.5071  -0.3106  -0.1557  -0.1279  -0.0834   0.0163   0.0550
     0.1314   0.1494   0.2751   0.3017   0.7021   0.7067   0.8411   0.8832
     0.9199   1.0085   1.0659   1.0939   1.1249   1.2950   1.3107   1.4158
     1.6116   1.6798   1.6913   1.7133   1.7986   1.8369   1.9438   2.0673
     2.1757   2.2065   2.2259   2.3185   2.3988   2.5997   2.6888   2.7976
     2.8438   2.9076   2.9290   2.9689   3.0405   3.1400   3.4275   3.5168
     7.2056   9.1932   9.5659  10.0066  10.5043  10.8134  11.0563  11.4595
    11.8134  11.9173

     occupation numbers 
     1.0000   1.0000   1.0000   1.0000   1.0000   1.0000   1.0000   1.0000
     1.0000   1.0000   1.0000   1.0000   1.0000   1.0000   1.0000   1.0000
     1.0000   1.0000   1.0000   1.0000   1.0000   1.0000   1.0000   1.0000
     1.0000   1.0000   1.0000   1.0000   1.0000   1.0000   1.0000   1.0000
     1.0000   1.0000   1.0000   1.0000   1.0000   1.0000   1.0000   1.0000
     1.0000   1.0000   1.0000   1.0000   1.0000   1.0000   1.0000   1.0000
     1.0000   1.0000   1.0000   1.0000   1.0000   1.0000   1.0000   1.0000
     1.0000   1.0000   1.0000   1.0000   1.0000   1.0000   1.0000   1.0000
     1.0000   1.0000   1.0000   1.0000   1.0000   1.0000   1.0000   1.0000
     1.0000   1.0000   1.0000   1.0000   1.0000   1.0000   1.0000   1.0000
     1.0000   1.0000   1.0000   1.0000   1.0000   1.0000   1.0000   1.0000
     1.0000   1.0000   1.0000   1.0000   1.0000   1.0000   1.0000   1.0000
     1.0000   1.0000   1.0000   1.0000   1.0000   1.0000   1.0000   1.0000
     0.0000   0.0000   0.0000   0.0000   0.0000   0.0000   0.0000   0.0000
     0.0000   0.0000

          k = 0.0000 0.0000 0.2454 ( 40205 PWs)   bands (ev):

   -86.5192 -86.5191 -86.3968 -86.3968 -52.6429 -52.6429 -52.5707 -52.5707
   -52.4810 -52.4809 -52.3859 -52.3859 -52.3279 -52.3279 -52.2545 -52.2544
   -45.7536 -17.7398 -17.7249 -17.6986 -16.5688 -16.4146 -16.3868 -16.2853
   -14.4445 -14.4339 -14.3718 -14.3555 -14.1449 -14.1044 -14.0794 -14.0459
   -14.0335 -14.0085 -13.9223 -13.9077  -4.9262  -4.5248  -4.4693  -4.1794
    -2.8280  -2.5853  -2.5366  -2.4114  -2.1037  -2.0426  -1.9827  -1.8825
    -1.7927  -1.6679  -1.4426  -1.1662  -1.1012  -1.0554  -0.6694  -0.6208
    -0.5251  -0.4704  -0.3101  -0.1531  -0.1393  -0.0951   0.0108   0.0434
     0.1356   0.1544   0.2633   0.3077   0.6183   0.6595   0.7954   0.8447
     0.9030   1.0414   1.0464   1.0728   1.1155   1.2651   1.4085   1.4667
     1.5816   1.6281   1.6987   1.7419   1.7772   1.8486   1.9653   2.0094
     2.1628   2.2145   2.2473   2.3032   2.3470   2.6355   2.6924   2.8032
     2.8518   2.9177   2.9398   2.9791   3.0420   3.1530   3.4073   3.4985
     7.3471   9.2655   9.5750  10.0190  10.5619  10.7833  11.0089  11.4731
    11.7207  11.9140

     occupation numbers 
     1.0000   1.0000   1.0000   1.0000   1.0000   1.0000   1.0000   1.0000
     1.0000   1.0000   1.0000   1.0000   1.0000   1.0000   1.0000   1.0000
     1.0000   1.0000   1.0000   1.0000   1.0000   1.0000   1.0000   1.0000
     1.0000   1.0000   1.0000   1.0000   1.0000   1.0000   1.0000   1.0000
     1.0000   1.0000   1.0000   1.0000   1.0000   1.0000   1.0000   1.0000
     1.0000   1.0000   1.0000   1.0000   1.0000   1.0000   1.0000   1.0000
     1.0000   1.0000   1.0000   1.0000   1.0000   1.0000   1.0000   1.0000
     1.0000   1.0000   1.0000   1.0000   1.0000   1.0000   1.0000   1.0000
     1.0000   1.0000   1.0000   1.0000   1.0000   1.0000   1.0000   1.0000
     1.0000   1.0000   1.0000   1.0000   1.0000   1.0000   1.0000   1.0000
     1.0000   1.0000   1.0000   1.0000   1.0000   1.0000   1.0000   1.0000
     1.0000   1.0000   1.0000   1.0000   1.0000   1.0000   1.0000   1.0000
     1.0000   1.0000   1.0000   1.0000   1.0000   1.0000   1.0000   1.0000
     0.0000   0.0000   0.0000   0.0000   0.0000   0.0000   0.0000   0.0000
     0.0000   0.0000

          k = 0.0000 0.0000 0.4908 ( 40238 PWs)   bands (ev):

   -86.5192 -86.5191 -86.3968 -86.3968 -52.6429 -52.6429 -52.5707 -52.5707
   -52.4810 -52.4809 -52.3859 -52.3859 -52.3279 -52.3279 -52.2545 -52.2544
   -45.7536 -17.7406 -17.7237 -17.7000 -16.5256 -16.3880 -16.3739 -16.2790
   -14.4811 -14.4729 -14.4180 -14.4024 -14.1299 -14.0888 -14.0710 -14.0411
   -14.0344 -14.0013 -13.9338 -13.9224  -4.8765  -4.5273  -4.4736  -4.2116
    -2.7138  -2.5237  -2.4913  -2.3720  -2.0980  -2.0499  -1.9853  -1.8165
    -1.7005  -1.5856  -1.5515  -1.2694  -1.0404  -0.9908  -0.6271  -0.5844
    -0.4947  -0.3860  -0.3123  -0.1759  -0.1551  -0.1263   0.0002   0.0257
     0.1544   0.1561   0.2317   0.3032   0.4559   0.5766   0.6751   0.8078
     0.8244   0.8842   0.9973   1.1154   1.1931   1.2205   1.4649   1.5190
     1.5389   1.6304   1.6603   1.7131   1.7408   1.8697   1.8887   2.0266
     2.0640   2.2697   2.2863   2.3361   2.3533   2.6492   2.6973   2.8433
     2.8791   2.9307   2.9820   3.0135   3.0413   3.1783   3.3449   3.4437
     7.7214   9.4639   9.5744  10.0736  10.6487  10.7838  10.8873  11.4192
    11.5736  11.7599

     occupation numbers 
     1.0000   1.0000   1.0000   1.0000   1.0000   1.0000   1.0000   1.0000
     1.0000   1.0000   1.0000   1.0000   1.0000   1.0000   1.0000   1.0000
     1.0000   1.0000   1.0000   1.0000   1.0000   1.0000   1.0000   1.0000
     1.0000   1.0000   1.0000   1.0000   1.0000   1.0000   1.0000   1.0000
     1.0000   1.0000   1.0000   1.0000   1.0000   1.0000   1.0000   1.0000
     1.0000   1.0000   1.0000   1.0000   1.0000   1.0000   1.0000   1.0000
     1.0000   1.0000   1.0000   1.0000   1.0000   1.0000   1.0000   1.0000
     1.0000   1.0000   1.0000   1.0000   1.0000   1.0000   1.0000   1.0000
     1.0000   1.0000   1.0000   1.0000   1.0000   1.0000   1.0000   1.0000
     1.0000   1.0000   1.0000   1.0000   1.0000   1.0000   1.0000   1.0000
     1.0000   1.0000   1.0000   1.0000   1.0000   1.0000   1.0000   1.0000
     1.0000   1.0000   1.0000   1.0000   1.0000   1.0000   1.0000   1.0000
     1.0000   1.0000   1.0000   1.0000   1.0000   1.0000   1.0000   1.0000
     0.0000   0.0000   0.0000   0.0000   0.0000   0.0000   0.0000   0.0000
     0.0000   0.0000

          k = 0.0000 0.0000 0.7363 ( 40234 PWs)   bands (ev):

   -86.5192 -86.5191 -86.3968 -86.3968 -52.6429 -52.6429 -52.5707 -52.5707
   -52.4810 -52.4809 -52.3859 -52.3859 -52.3279 -52.3279 -52.2545 -52.2544
   -45.7536 -17.7436 -17.7219 -17.6996 -16.4680 -16.3687 -16.3493 -16.2759
   -14.5256 -14.5122 -14.4688 -14.4575 -14.1129 -14.0757 -14.0615 -14.0368
   -14.0244 -13.9941 -13.9511 -13.9441  -4.7978  -4.5486  -4.4667  -4.2738
    -2.5833  -2.4637  -2.4156  -2.3477  -2.0836  -2.0275  -1.9757  -1.7794
    -1.6927  -1.5199  -1.4807  -1.4089  -0.9229  -0.8656  -0.5616  -0.5367
    -0.4455  -0.3489  -0.2795  -0.2391  -0.2029  -0.1323  -0.0219   0.0302
     0.1352   0.1579   0.2114   0.2647   0.3263   0.4326   0.5618   0.5816
     0.7667   0.8681   0.9576   1.0839   1.2001   1.3310   1.4027   1.4360
     1.5298   1.5649   1.6215   1.6875   1.7495   1.7567   1.8321   1.9387
     2.1145   2.3062   2.3412   2.5094   2.5205   2.6152   2.7060   2.8717
     2.9277   2.9517   3.0118   3.0344   3.0858   3.1914   3.2375   3.3553
     8.2238   9.4790   9.7547  10.1782  10.5913  10.6785  10.9989  11.2474
    11.4813  11.5187

     occupation numbers 
     1.0000   1.0000   1.0000   1.0000   1.0000   1.0000   1.0000   1.0000
     1.0000   1.0000   1.0000   1.0000   1.0000   1.0000   1.0000   1.0000
     1.0000   1.0000   1.0000   1.0000   1.0000   1.0000   1.0000   1.0000
     1.0000   1.0000   1.0000   1.0000   1.0000   1.0000   1.0000   1.0000
     1.0000   1.0000   1.0000   1.0000   1.0000   1.0000   1.0000   1.0000
     1.0000   1.0000   1.0000   1.0000   1.0000   1.0000   1.0000   1.0000
     1.0000   1.0000   1.0000   1.0000   1.0000   1.0000   1.0000   1.0000
     1.0000   1.0000   1.0000   1.0000   1.0000   1.0000   1.0000   1.0000
     1.0000   1.0000   1.0000   1.0000   1.0000   1.0000   1.0000   1.0000
     1.0000   1.0000   1.0000   1.0000   1.0000   1.0000   1.0000   1.0000
     1.0000   1.0000   1.0000   1.0000   1.0000   1.0000   1.0000   1.0000
     1.0000   1.0000   1.0000   1.0000   1.0000   1.0000   1.0000   1.0000
     1.0000   1.0000   1.0000   1.0000   1.0000   1.0000   1.0000   1.0000
     0.0000   0.0000   0.0000   0.0000   0.0000   0.0000   0.0000   0.0000
     0.0000   0.0000

          k = 0.0000 0.0000 0.9817 ( 40292 PWs)   bands (ev):

   -86.5192 -86.5191 -86.3968 -86.3968 -52.6429 -52.6429 -52.5707 -52.5707
   -52.4810 -52.4809 -52.3859 -52.3859 -52.3279 -52.3279 -52.2545 -52.2544
   -45.7536 -17.7464 -17.7208 -17.6984 -16.4138 -16.3784 -16.3180 -16.2814
   -14.5547 -14.5355 -14.5016 -14.4962 -14.0967 -14.0829 -14.0435 -14.0355
   -14.0031 -13.9900 -13.9729 -13.9633  -4.7023  -4.6106  -4.4282  -4.3494
    -2.4982  -2.4488  -2.3664  -2.3066  -2.0607  -1.9893  -1.9557  -1.8513
    -1.6817  -1.5660  -1.3930  -1.3772  -0.7390  -0.6700  -0.5238  -0.4879
    -0.4669  -0.4426  -0.3281  -0.3061  -0.1886  -0.0871  -0.0247   0.0374
     0.0693   0.1328   0.1860   0.2216   0.2760   0.3027   0.4140   0.5015
     0.7764   0.8924   0.9409   1.0233   1.2448   1.3265   1.3698   1.4250
     1.4406   1.4902   1.5900   1.6566   1.7230   1.7440   1.7779   1.9177
     2.1467   2.3072   2.4100   2.5514   2.6689   2.7295   2.7780   2.8909
     2.9376   2.9676   2.9766   3.0520   3.1057   3.1597   3.1874   3.2557
     8.7498   9.2064  10.0857  10.3068  10.4192  10.4930  11.0577  11.2107
    11.4237  11.5015

     occupation numbers 
     1.0000   1.0000   1.0000   1.0000   1.0000   1.0000   1.0000   1.0000
     1.0000   1.0000   1.0000   1.0000   1.0000   1.0000   1.0000   1.0000
     1.0000   1.0000   1.0000   1.0000   1.0000   1.0000   1.0000   1.0000
     1.0000   1.0000   1.0000   1.0000   1.0000   1.0000   1.0000   1.0000
     1.0000   1.0000   1.0000   1.0000   1.0000   1.0000   1.0000   1.0000
     1.0000   1.0000   1.0000   1.0000   1.0000   1.0000   1.0000   1.0000
     1.0000   1.0000   1.0000   1.0000   1.0000   1.0000   1.0000   1.0000
     1.0000   1.0000   1.0000   1.0000   1.0000   1.0000   1.0000   1.0000
     1.0000   1.0000   1.0000   1.0000   1.0000   1.0000   1.0000   1.0000
     1.0000   1.0000   1.0000   1.0000   1.0000   1.0000   1.0000   1.0000
     1.0000   1.0000   1.0000   1.0000   1.0000   1.0000   1.0000   1.0000
     1.0000   1.0000   1.0000   1.0000   1.0000   1.0000   1.0000   1.0000
     1.0000   1.0000   1.0000   1.0000   1.0000   1.0000   1.0000   1.0000
     0.0000   0.0000   0.0000   0.0000   0.0000   0.0000   0.0000   0.0000
     0.0000   0.0000

          k = 0.0000 0.2391 0.0000 ( 40223 PWs)   bands (ev):

   -86.5192 -86.5191 -86.3968 -86.3968 -52.6429 -52.6429 -52.5707 -52.5707
   -52.4810 -52.4809 -52.3859 -52.3859 -52.3279 -52.3279 -52.2545 -52.2544
   -45.7536 -17.7401 -17.7252 -17.6977 -16.5709 -16.4223 -16.3917 -16.3030
   -14.4263 -14.4135 -14.3530 -14.3396 -14.1708 -14.1209 -14.1028 -14.0383
   -14.0314 -13.9833 -13.9157 -13.9065  -4.9185  -4.5242  -4.4672  -4.1802
    -2.8477  -2.6193  -2.5327  -2.4355  -2.1006  -2.0271  -1.9567  -1.9034
    -1.7898  -1.6939  -1.3938  -1.1635  -1.1087  -1.0514  -0.6424  -0.5954
    -0.5383  -0.4960  -0.3906  -0.2629  -0.1654  -0.0868   0.0178   0.1137
     0.1785   0.2082   0.2695   0.3025   0.5787   0.5919   0.6921   0.8472
     0.9110   1.0290   1.0734   1.1000   1.1867   1.2937   1.3295   1.4313
     1.6048   1.6646   1.7042   1.7356   1.8595   1.8665   1.9855   2.0431
     2.1469   2.1907   2.2083   2.3407   2.4400   2.5993   2.6753   2.7524
     2.8432   2.8851   2.9208   2.9539   3.0522   3.1827   3.4279   3.4950
     7.3586   9.2862   9.6616   9.9003  10.5554  10.7755  11.1287  11.5183
    11.6985  11.9237

     occupation numbers 
     1.0000   1.0000   1.0000   1.0000   1.0000   1.0000   1.0000   1.0000
     1.0000   1.0000   1.0000   1.0000   1.0000   1.0000   1.0000   1.0000
     1.0000   1.0000   1.0000   1.0000   1.0000   1.0000   1.0000   1.0000
     1.0000   1.0000   1.0000   1.0000   1.0000   1.0000   1.0000   1.0000
     1.0000   1.0000   1.0000   1.0000   1.0000   1.0000   1.0000   1.0000
     1.0000   1.0000   1.0000   1.0000   1.0000   1.0000   1.0000   1.0000
     1.0000   1.0000   1.0000   1.0000   1.0000   1.0000   1.0000   1.0000
     1.0000   1.0000   1.0000   1.0000   1.0000   1.0000   1.0000   1.0000
     1.0000   1.0000   1.0000   1.0000   1.0000   1.0000   1.0000   1.0000
     1.0000   1.0000   1.0000   1.0000   1.0000   1.0000   1.0000   1.0000
     1.0000   1.0000   1.0000   1.0000   1.0000   1.0000   1.0000   1.0000
     1.0000   1.0000   1.0000   1.0000   1.0000   1.0000   1.0000   1.0000
     1.0000   1.0000   1.0000   1.0000   1.0000   1.0000   1.0000   1.0000
     0.0000   0.0000   0.0000   0.0000   0.0000   0.0000   0.0000   0.0000
     0.0000   0.0000

          k = 0.0000 0.2391 0.2454 ( 40217 PWs)   bands (ev):

   -86.5192 -86.5191 -86.3968 -86.3968 -52.6429 -52.6429 -52.5707 -52.5707
   -52.4810 -52.4809 -52.3859 -52.3859 -52.3279 -52.3279 -52.2545 -52.2544
   -45.7536 -17.7397 -17.7250 -17.6986 -16.5565 -16.4111 -16.3873 -16.2986
   -14.4414 -14.4290 -14.3735 -14.3585 -14.1596 -14.1153 -14.0983 -14.0391
   -14.0326 -13.9814 -13.9206 -13.9093  -4.9023  -4.5249  -4.4663  -4.1893
    -2.8059  -2.5881  -2.5216  -2.4151  -2.1008  -2.0378  -1.9499  -1.8711
    -1.7657  -1.6646  -1.4355  -1.2147  -1.0769  -1.0323  -0.6321  -0.5917
    -0.5263  -0.4635  -0.3999  -0.2625  -0.1887  -0.0802   0.0012   0.1061
     0.1800   0.1962   0.2651   0.3112   0.5079   0.5573   0.6527   0.8085
     1.0183   1.0368   1.0567   1.1065   1.1648   1.2699   1.3254   1.4701
     1.5917   1.6536   1.6900   1.7165   1.8172   1.8790   1.9776   2.0313
     2.1252   2.2048   2.2112   2.3172   2.3901   2.6372   2.6914   2.7564
     2.8515   2.8801   2.9530   2.9633   3.0537   3.1958   3.4129   3.4853
     7.4934   9.3604   9.6739   9.9186  10.6026  10.7530  11.0827  11.5160
    11.6716  11.8855

     occupation numbers 
     1.0000   1.0000   1.0000   1.0000   1.0000   1.0000   1.0000   1.0000
     1.0000   1.0000   1.0000   1.0000   1.0000   1.0000   1.0000   1.0000
     1.0000   1.0000   1.0000   1.0000   1.0000   1.0000   1.0000   1.0000
     1.0000   1.0000   1.0000   1.0000   1.0000   1.0000   1.0000   1.0000
     1.0000   1.0000   1.0000   1.0000   1.0000   1.0000   1.0000   1.0000
     1.0000   1.0000   1.0000   1.0000   1.0000   1.0000   1.0000   1.0000
     1.0000   1.0000   1.0000   1.0000   1.0000   1.0000   1.0000   1.0000
     1.0000   1.0000   1.0000   1.0000   1.0000   1.0000   1.0000   1.0000
     1.0000   1.0000   1.0000   1.0000   1.0000   1.0000   1.0000   1.0000
     1.0000   1.0000   1.0000   1.0000   1.0000   1.0000   1.0000   1.0000
     1.0000   1.0000   1.0000   1.0000   1.0000   1.0000   1.0000   1.0000
     1.0000   1.0000   1.0000   1.0000   1.0000   1.0000   1.0000   1.0000
     1.0000   1.0000   1.0000   1.0000   1.0000   1.0000   1.0000   1.0000
     0.0000   0.0000   0.0000   0.0000   0.0000   0.0000   0.0000   0.0000
     0.0000   0.0000

          k = 0.0000 0.2391 0.4908 ( 40204 PWs)   bands (ev):

   -86.5192 -86.5191 -86.3968 -86.3968 -52.6429 -52.6429 -52.5707 -52.5707
   -52.4810 -52.4809 -52.3859 -52.3859 -52.3279 -52.3279 -52.2545 -52.2544
   -45.7536 -17.7403 -17.7237 -17.7000 -16.5154 -16.3836 -16.3752 -16.2897
   -14.4781 -14.4706 -14.4203 -14.4062 -14.1400 -14.1020 -14.0838 -14.0447
   -14.0294 -13.9773 -13.9328 -13.9189  -4.8541  -4.5300  -4.4644  -4.2206
    -2.6947  -2.5139  -2.4852  -2.3777  -2.0910  -2.0505  -1.9457  -1.7861
    -1.6938  -1.5850  -1.5399  -1.3105  -1.0178  -0.9844  -0.6007  -0.5664
    -0.4965  -0.4353  -0.3797  -0.2716  -0.1888  -0.0772  -0.0337   0.0925
     0.1567   0.1921   0.2456   0.3142   0.3900   0.4972   0.5912   0.7979
     0.8643   0.9662   1.0666   1.1422   1.1693   1.2248   1.3778   1.4977
     1.5521   1.6070   1.6471   1.7185   1.7501   1.8484   1.8964   2.0205
     2.0811   2.2142   2.2590   2.3544   2.3897   2.6439   2.7097   2.8157
     2.8695   2.8874   2.9890   3.0179   3.0565   3.2115   3.3756   3.4458
     7.8537   9.5591   9.6799   9.9928  10.6731  10.7766  10.9670  11.4579
    11.5543  11.7761

     occupation numbers 
     1.0000   1.0000   1.0000   1.0000   1.0000   1.0000   1.0000   1.0000
     1.0000   1.0000   1.0000   1.0000   1.0000   1.0000   1.0000   1.0000
     1.0000   1.0000   1.0000   1.0000   1.0000   1.0000   1.0000   1.0000
     1.0000   1.0000   1.0000   1.0000   1.0000   1.0000   1.0000   1.0000
     1.0000   1.0000   1.0000   1.0000   1.0000   1.0000   1.0000   1.0000
     1.0000   1.0000   1.0000   1.0000   1.0000   1.0000   1.0000   1.0000
     1.0000   1.0000   1.0000   1.0000   1.0000   1.0000   1.0000   1.0000
     1.0000   1.0000   1.0000   1.0000   1.0000   1.0000   1.0000   1.0000
     1.0000   1.0000   1.0000   1.0000   1.0000   1.0000   1.0000   1.0000
     1.0000   1.0000   1.0000   1.0000   1.0000   1.0000   1.0000   1.0000
     1.0000   1.0000   1.0000   1.0000   1.0000   1.0000   1.0000   1.0000
     1.0000   1.0000   1.0000   1.0000   1.0000   1.0000   1.0000   1.0000
     1.0000   1.0000   1.0000   1.0000   1.0000   1.0000   1.0000   1.0000
     0.0000   0.0000   0.0000   0.0000   0.0000   0.0000   0.0000   0.0000
     0.0000   0.0000

          k = 0.0000 0.2391 0.7363 ( 40239 PWs)   bands (ev):

   -86.5192 -86.5191 -86.3968 -86.3968 -52.6429 -52.6429 -52.5707 -52.5707
   -52.4810 -52.4809 -52.3859 -52.3859 -52.3279 -52.3279 -52.2545 -52.2544
   -45.7536 -17.7433 -17.7219 -17.6997 -16.4601 -16.3678 -16.3471 -16.2834
   -14.5235 -14.5129 -14.4713 -14.4610 -14.1203 -14.0903 -14.0650 -14.0484
   -14.0250 -13.9737 -13.9487 -13.9327  -4.7783  -4.5522  -4.4527  -4.2789
    -2.5664  -2.4457  -2.4196  -2.3504  -2.0719  -2.0377  -1.9297  -1.7546
    -1.6737  -1.5182  -1.4794  -1.4329  -0.9149  -0.8977  -0.5448  -0.5319
    -0.4994  -0.4675  -0.3281  -0.2174  -0.1576  -0.0992  -0.0693   0.0599
     0.1411   0.1952   0.2057   0.2861   0.2992   0.4394   0.5117   0.6157
     0.7642   0.8735   1.0358   1.0773   1.1999   1.3051   1.3672   1.4160
     1.5294   1.5462   1.5955   1.6591   1.7396   1.7825   1.8426   1.9270
     2.1012   2.2165   2.3440   2.4559   2.5531   2.6104   2.7287   2.8330
     2.8899   2.9369   3.0286   3.0390   3.1083   3.2137   3.3164   3.3779
     8.3430   9.5868   9.8500  10.1308  10.6119  10.7700  11.0121  11.2955
    11.4393  11.5015

     occupation numbers 
     1.0000   1.0000   1.0000   1.0000   1.0000   1.0000   1.0000   1.0000
     1.0000   1.0000   1.0000   1.0000   1.0000   1.0000   1.0000   1.0000
     1.0000   1.0000   1.0000   1.0000   1.0000   1.0000   1.0000   1.0000
     1.0000   1.0000   1.0000   1.0000   1.0000   1.0000   1.0000   1.0000
     1.0000   1.0000   1.0000   1.0000   1.0000   1.0000   1.0000   1.0000
     1.0000   1.0000   1.0000   1.0000   1.0000   1.0000   1.0000   1.0000
     1.0000   1.0000   1.0000   1.0000   1.0000   1.0000   1.0000   1.0000
     1.0000   1.0000   1.0000   1.0000   1.0000   1.0000   1.0000   1.0000
     1.0000   1.0000   1.0000   1.0000   1.0000   1.0000   1.0000   1.0000
     1.0000   1.0000   1.0000   1.0000   1.0000   1.0000   1.0000   1.0000
     1.0000   1.0000   1.0000   1.0000   1.0000   1.0000   1.0000   1.0000
     1.0000   1.0000   1.0000   1.0000   1.0000   1.0000   1.0000   1.0000
     1.0000   1.0000   1.0000   1.0000   1.0000   1.0000   1.0000   1.0000
     0.0000   0.0000   0.0000   0.0000   0.0000   0.0000   0.0000   0.0000
     0.0000   0.0000

          k = 0.0000 0.2391 0.9817 ( 40255 PWs)   bands (ev):

   -86.5192 -86.5191 -86.3968 -86.3968 -52.6429 -52.6429 -52.5707 -52.5707
   -52.4810 -52.4809 -52.3859 -52.3859 -52.3279 -52.3279 -52.2545 -52.2544
   -45.7536 -17.7461 -17.7208 -17.6984 -16.4076 -16.3752 -16.3182 -16.2862
   -14.5554 -14.5370 -14.5041 -14.4979 -14.1039 -14.0944 -14.0562 -14.0336
   -14.0215 -13.9767 -13.9619 -13.9423  -4.6879  -4.6065  -4.4191  -4.3483
    -2.4810  -2.4372  -2.3666  -2.3074  -2.0498  -2.0087  -1.9026  -1.8323
    -1.6563  -1.5755  -1.3920  -1.3798  -0.7797  -0.7565  -0.6151  -0.6072
    -0.4551  -0.3897  -0.3011  -0.2159  -0.1595  -0.0680  -0.0234  -0.0063
     0.1071   0.1598   0.2153   0.2196   0.2621   0.3592   0.4247   0.4441
     0.7622   0.8809   0.9737   1.0294   1.2480   1.2944   1.3007   1.3940
[...]
     atom   21 type  3   force =    -0.02365655    0.05977281   -0.01714195
     atom   22 type  3   force =     0.02827358    0.05889678   -0.01540335
     atom   23 type  3   force =    -0.02537132   -0.06181706   -0.01682961
     atom   24 type  3   force =    -0.02619060    0.05857298    0.02031682
     atom   25 type  3   force =     0.02365620   -0.05977236    0.01714169
     The non-local contrib.  to forces
     atom    1 type  2   force =     0.00001299   -0.00000629   -0.00001342
     atom    2 type  1   force =    -0.02678853    0.00545065    0.05435187
     atom    3 type  1   force =    -0.15101149   -0.06749238    0.06990929
     atom    4 type  1   force =     0.02678354   -0.00544989   -0.05437302
     atom    5 type  1   force =     0.15100097    0.06749391   -0.06989770
     atom    6 type  4   force =    -0.04203125   -0.00208787   -0.09560517
     atom    7 type  4   force =     0.04472281    0.00453799   -0.10905483
     atom    8 type  4   force =     0.04201660    0.00208616    0.09556288
     atom    9 type  4   force =    -0.04472335   -0.00453491    0.10907408
     atom   10 type  3   force =     0.21045552    0.01943174   -1.52766415
     atom   11 type  3   force =    -0.34941087    0.02299846   -1.54104666
     atom   12 type  3   force =    -0.21048281   -0.01944851    1.52763273
     atom   13 type  3   force =     0.34940038   -0.02299733    1.54104647
     atom   14 type  3   force =     1.20635060   -0.01639887   -0.65441341
     atom   15 type  3   force =    -1.23564627   -0.00247623   -0.53091711
     atom   16 type  3   force =    -1.20635655    0.01640014    0.65439416
     atom   17 type  3   force =     1.23561755    0.00248593    0.53093608
     atom   18 type  3   force =    -0.63252295   -1.14013419    0.61122580
     atom   19 type  3   force =     0.56030766    1.15975280    0.67046620
     atom   20 type  3   force =     0.56532716   -1.12608511   -0.75175160
     atom   21 type  3   force =    -0.51700107    1.12722519   -0.66706800
     atom   22 type  3   force =     0.63253329    1.14015183   -0.61119867
     atom   23 type  3   force =    -0.56029775   -1.15974149   -0.67046934
     atom   24 type  3   force =    -0.56532175    1.12605983    0.75177381
     atom   25 type  3   force =     0.51699994   -1.12722900    0.66706737
     The ionic contribution  to forces
     atom    1 type  2   force =     0.00073013   -0.00025156   -0.00015833
     atom    2 type  1   force =    10.49665745   -1.49501942   -0.70915706
     atom    3 type  1   force =     0.32592923    1.07109884   -0.74290075
     atom    4 type  1   force =   -10.49703458    1.49526843    0.70915841
     atom    5 type  1   force =    -0.32614115   -1.07127315    0.74285976
     atom    6 type  4   force =    -1.85992072   -1.65340009    0.16089834
     atom    7 type  4   force =     4.74490344    0.04332899   -0.26474787
     atom    8 type  4   force =     1.85997675    1.65346758   -0.16115908
     atom    9 type  4   force =    -4.74504127   -0.04332525    0.26489413
     atom   10 type  3   force =    -5.55230681   -2.41212372    2.31805653
     atom   11 type  3   force =    10.73969515   -0.08645146    2.98788711
     atom   12 type  3   force =     5.55250398    2.41242291   -2.31758610
     atom   13 type  3   force =   -10.73982900    0.08643047   -2.98800151
     atom   14 type  3   force =     2.73141915    0.08988952    5.43792331
     atom   15 type  3   force =    -0.40499692    2.67164077    3.34096712
     atom   16 type  3   force =    -2.73159981   -0.08988059   -5.43787403
     atom   17 type  3   force =     0.40541766   -2.67181680   -3.34081926
     atom   18 type  3   force =     1.16504348    2.87652452   -0.48029106
     atom   19 type  3   force =     5.20964764   -3.28453113   -2.23861401
     atom   20 type  3   force =     1.63203768    2.68626070    2.60292020
     atom   21 type  3   force =    -4.81115527   -3.15146200    2.10669943
     atom   22 type  3   force =    -1.16514502   -2.87648385    0.48003446
     atom   23 type  3   force =    -5.20985743    3.28442938    2.23868935
     atom   24 type  3   force =    -1.63200862   -2.68618944   -2.60299788
     atom   25 type  3   force =     4.81107484    3.15144634   -2.10668122
     The local contribution  to forces
     atom    1 type  2   force =    -0.00074686    0.00025542    0.00017181
     atom    2 type  1   force =   -10.45657564    1.48918147    0.65945952
     atom    3 type  1   force =    -0.17287659   -0.99782641    0.67485252
     atom    4 type  1   force =    10.45696589   -1.48943007   -0.65943571
     atom    5 type  1   force =     0.17309405    0.99799763   -0.67482815
     atom    6 type  4   force =     1.88222684    1.65052992   -0.12005363
     atom    7 type  4   force =    -4.76468051   -0.04758760    0.31678803
     atom    8 type  4   force =    -1.88228507   -1.65059427    0.12030115
     atom    9 type  4   force =     4.76482424    0.04758312   -0.31692606
     atom   10 type  3   force =     5.35791998    2.39507408   -0.79959420
     atom   11 type  3   force =   -10.41326311    0.06428939   -1.45254907
     atom   12 type  3   force =    -5.35809537   -2.39535533    0.79919158
     atom   13 type  3   force =    10.41342020   -0.06426939    1.45263901
     atom   14 type  3   force =    -3.86025673   -0.07428425   -4.81178153
     atom   15 type  3   force =     1.55694801   -2.66970871   -2.83105106
     atom   16 type  3   force =     3.86045406    0.07427435    4.81174965
     atom   17 type  3   force =    -1.55734822    2.66987419    2.83089137
     atom   18 type  3   force =    -0.56678876   -1.80620278   -0.10956549
     atom   19 type  3   force =    -5.73921029    2.19765200    1.59147418
     atom   20 type  3   force =    -2.16580447   -1.62941848   -1.87887502
     atom   21 type  3   force =     5.29957802    2.09474530   -1.46326570
     atom   22 type  3   force =     0.56687002    1.80613810    0.10979844
     atom   23 type  3   force =     5.73941537   -2.19756738   -1.59154557
     atom   24 type  3   force =     2.16576142    1.62937863    1.87893448
     atom   25 type  3   force =    -5.29949062   -2.09472255    1.46325036
     The core correction contribution to forces
     atom    1 type  2   force =     0.00000000    0.00000000    0.00000000
     atom    2 type  1   force =    -0.00004905   -0.00015184    0.00009902
     atom    3 type  1   force =     0.00194142    0.00052187   -0.00080693
     atom    4 type  1   force =     0.00004912    0.00015184   -0.00009884
     atom    5 type  1   force =    -0.00194160   -0.00052197    0.00080691
     atom    6 type  4   force =     0.00365824    0.00060249    0.00864536
     atom    7 type  4   force =    -0.00400649   -0.00029745    0.01005434
     atom    8 type  4   force =    -0.00365694   -0.00060237   -0.00864148
     atom    9 type  4   force =     0.00400658    0.00029714   -0.01005619
     atom   10 type  3   force =    -0.00273140   -0.00018375    0.01333832
     atom   11 type  3   force =     0.00403326   -0.00023126    0.01347241
     atom   12 type  3   force =     0.00273166    0.00018388   -0.01333866
     atom   13 type  3   force =    -0.00403317    0.00023124   -0.01347209
     atom   14 type  3   force =    -0.01152610    0.00016936    0.00672614
     atom   15 type  3   force =     0.01171117   -0.00007593    0.00554421
     atom   16 type  3   force =     0.01152613   -0.00016938   -0.00672593
     atom   17 type  3   force =    -0.01171107    0.00007585   -0.00554450
     atom   18 type  3   force =     0.00598821    0.01090862   -0.00596352
     atom   19 type  3   force =    -0.00537077   -0.01106368   -0.00649534
     atom   20 type  3   force =    -0.00537550    0.01067119    0.00739551
     atom   21 type  3   force =     0.00492400   -0.01073728    0.00649163
     atom   22 type  3   force =    -0.00598823   -0.01090872    0.00596321
     atom   23 type  3   force =     0.00537071    0.01106365    0.00649542
     atom   24 type  3   force =     0.00537551   -0.01067100   -0.00739579
     atom   25 type  3   force =    -0.00492397    0.01073728   -0.00649161
     The Hubbard contrib.    to forces
     atom    1 type  2   force =     0.00000000    0.00000000    0.00000000
     atom    2 type  1   force =     0.00000000    0.00000000    0.00000000
     atom    3 type  1   force =     0.00000000    0.00000000    0.00000000
     atom    4 type  1   force =     0.00000000    0.00000000    0.00000000
     atom    5 type  1   force =     0.00000000    0.00000000    0.00000000
     atom    6 type  4   force =     0.00000000    0.00000000    0.00000000
     atom    7 type  4   force =     0.00000000    0.00000000    0.00000000
     atom    8 type  4   force =     0.00000000    0.00000000    0.00000000
     atom    9 type  4   force =     0.00000000    0.00000000    0.00000000
     atom   10 type  3   force =     0.00000000    0.00000000    0.00000000
     atom   11 type  3   force =     0.00000000    0.00000000    0.00000000
     atom   12 type  3   force =     0.00000000    0.00000000    0.00000000
     atom   13 type  3   force =     0.00000000    0.00000000    0.00000000
     atom   14 type  3   force =     0.00000000    0.00000000    0.00000000
     atom   15 type  3   force =     0.00000000    0.00000000    0.00000000
     atom   16 type  3   force =     0.00000000    0.00000000    0.00000000
     atom   17 type  3   force =     0.00000000    0.00000000    0.00000000
     atom   18 type  3   force =     0.00000000    0.00000000    0.00000000
     atom   19 type  3   force =     0.00000000    0.00000000    0.00000000
     atom   20 type  3   force =     0.00000000    0.00000000    0.00000000
     atom   21 type  3   force =     0.00000000    0.00000000    0.00000000
     atom   22 type  3   force =     0.00000000    0.00000000    0.00000000
     atom   23 type  3   force =     0.00000000    0.00000000    0.00000000
     atom   24 type  3   force =     0.00000000    0.00000000    0.00000000
     atom   25 type  3   force =     0.00000000    0.00000000    0.00000000
     The SCF correction term to forces
     atom    1 type  2   force =     0.00000773    0.00000136   -0.00000008
     atom    2 type  1   force =    -0.00000299    0.00000005    0.00000059
     atom    3 type  1   force =     0.00000374    0.00000040    0.00000016
     atom    4 type  1   force =    -0.00000282   -0.00000028    0.00000030
     atom    5 type  1   force =     0.00000000   -0.00000041   -0.00000007
     atom    6 type  4   force =     0.00000325   -0.00000014    0.00000015
     atom    7 type  4   force =    -0.00000424   -0.00000008   -0.00000110
     atom    8 type  4   force =     0.00000433   -0.00000002   -0.00000022
     atom    9 type  4   force =    -0.00000345    0.00000016    0.00000011
     atom   10 type  3   force =     0.00000258   -0.00000003   -0.00000109
     atom   11 type  3   force =    -0.00000796    0.00000008    0.00000285
     atom   12 type  3   force =     0.00000555    0.00000003    0.00000168
     atom   13 type  3   force =    -0.00000445    0.00000008    0.00000083
     atom   14 type  3   force =    -0.00000347    0.00000016    0.00000097
     atom   15 type  3   force =     0.00000954    0.00000016   -0.00000180
     atom   16 type  3   force =    -0.00000822   -0.00000026   -0.00000150
     atom   17 type  3   force =     0.00000563    0.00000004   -0.00000011
     atom   18 type  3   force =     0.00000248    0.00000454    0.00000204
     atom   19 type  3   force =    -0.00000400    0.00000430   -0.00000306
     atom   20 type  3   force =     0.00000335    0.00000008   -0.00000051
     atom   21 type  3   force =    -0.00000242    0.00000157    0.00000068
     atom   22 type  3   force =     0.00000335   -0.00000062   -0.00000080
     atom   23 type  3   force =    -0.00000240   -0.00000125    0.00000051
     atom   24 type  3   force =     0.00000266   -0.00000507    0.00000217
     atom   25 type  3   force =    -0.00000417   -0.00000447   -0.00000323

     Total force =     0.262178     Total SCF correction =     0.000026


     Computing stress (Cartesian axis) and pressure


     negative rho (up, down):  0.000E+00 9.644E-04
          total   stress  (Ry/bohr**3)                   (kbar)     P=     -140.82
  -0.00142110   0.00002057   0.00000718         -209.05        3.03        1.06
   0.00002057  -0.00105880  -0.00000608            3.03     -155.75       -0.89
   0.00000718  -0.00000608  -0.00039185            1.06       -0.89      -57.64

     kinetic stress (kbar)  23605.97     20.84     -2.74
                               20.84  23821.14      0.34
                               -2.74      0.34  23742.58

     local   stress (kbar)  -4837.42   2423.38   -745.78
                             2423.38 -13916.77    855.85
                             -745.78    855.85  -8045.12

     nonloc. stress (kbar)  -5979.01      1.50      2.20
                                1.50  -5937.12      1.35
                                2.20      1.35  -5918.36

     hartree stress (kbar)  11656.55   -988.48    292.24
                             -988.48  16542.95   -351.97
                              292.24   -351.97  13572.39

     exc-cor stress (kbar)  -2512.56     -1.21      0.58
                               -1.21  -2518.52     -0.30
                                0.58     -0.30  -2516.54

     corecor stress (kbar)  -2821.61      0.32     -0.58
                                0.32  -2821.90     -0.04
                               -0.58     -0.04  -2825.24

     ewald   stress (kbar) -19320.97  -1453.32    455.14
                            -1453.32 -15325.53   -506.12
                              455.14   -506.12 -18067.35

     hubbard stress (kbar)      0.00      0.00      0.00
                                0.00      0.00      0.00
                                0.00      0.00      0.00

     DFT-D   stress (kbar)      0.00      0.00      0.00
                                0.00      0.00      0.00
                                0.00      0.00      0.00

     XDM     stress (kbar)      0.00      0.00      0.00
                                0.00      0.00      0.00
                                0.00      0.00      0.00

     dft-nl  stress (kbar)      0.00      0.00      0.00
                                0.00      0.00      0.00
                                0.00      0.00      0.00

     TS-vdW  stress (kbar)      0.00      0.00      0.00
                                0.00      0.00      0.00
                                0.00      0.00      0.00



     init_run     :   1118.43s CPU   1378.30s WALL (       1 calls)
     electrons    : 102993.57s CPU 114907.84s WALL (       1 calls)
     forces       :    199.42s CPU    220.02s WALL (       1 calls)
     stress       :    889.37s CPU    976.98s WALL (       1 calls)

     Called by init_run:
     wfcinit      :   1105.40s CPU   1349.62s WALL (       1 calls)
     wfcinit:atom :      1.18s CPU      1.43s WALL (     316 calls)
     wfcinit:wfcr :   1098.36s CPU   1340.44s WALL (     316 calls)
     potinit      :      5.23s CPU     10.63s WALL (       1 calls)
     hinit0       :      4.87s CPU     10.99s WALL (       1 calls)

     Called by electrons:
     c_bands      :  86415.27s CPU  96539.22s WALL (      37 calls)
     sum_band     :  16318.91s CPU  18065.70s WALL (      37 calls)
     v_of_rho     :     91.90s CPU    104.43s WALL (      38 calls)
     v_h          :      7.00s CPU      7.77s WALL (      38 calls)
     v_xc         :     89.65s CPU    101.77s WALL (      40 calls)
     newd         :     76.38s CPU    100.39s WALL (      38 calls)
     PAW_pot      :     21.62s CPU     23.94s WALL (      38 calls)
     mix_rho      :     55.63s CPU     62.81s WALL (      37 calls)

     Called by c_bands:
     init_us_2    :    195.97s CPU    219.57s WALL (   24332 calls)
     cegterg      :  85317.27s CPU  95278.70s WALL (   11692 calls)

     Called by sum_band:
     sum_band:wei :      0.64s CPU      0.75s WALL (      37 calls)
     sum_band:loo :  16151.21s CPU  17859.47s WALL (      37 calls)
     sum_band:buf :     56.08s CPU     59.39s WALL (   11692 calls)
     sum_band:ini :     90.29s CPU    101.71s WALL (   11692 calls)
     sum_band:cal :   1508.53s CPU   1664.79s WALL (   11692 calls)
     sum_band:bec :      7.77s CPU      8.34s WALL (   11692 calls)
     addusdens    :    143.37s CPU    179.83s WALL (      37 calls)
     addusd:skk   :      1.08s CPU      1.22s WALL (     111 calls)
     addusd:dgemm :     60.00s CPU     86.98s WALL (     222 calls)
     addusd:qvan2 :     80.65s CPU     89.32s WALL (     222 calls)

     Called by *egterg:
     cdiaghg      :   3762.12s CPU   4235.37s WALL (   41941 calls)
     cegterg:over :   4566.02s CPU   5066.14s WALL (   30249 calls)
     cegterg:upda :    667.30s CPU    756.62s WALL (   30249 calls)
     cegterg:last :   1497.28s CPU   1687.07s WALL (   19303 calls)
     h_psi        :  69975.71s CPU  78265.87s WALL (   42257 calls)
     s_psi        :   1651.29s CPU   1867.26s WALL (   42257 calls)
     g_psi        :     11.84s CPU     13.00s WALL (   30249 calls)

     Called by h_psi:
     h_psi:calbec :   4058.70s CPU   4531.69s WALL (   42257 calls)
     vloc_psi     :  64008.52s CPU  71559.66s WALL (   42257 calls)
     add_vuspsi   :   1824.71s CPU   2085.03s WALL (   42257 calls)

     General routines
     calbec       :   5839.16s CPU   6494.17s WALL (   55529 calls)
     fft          :    140.61s CPU    157.11s WALL (     988 calls)
     ffts         :      2.43s CPU      2.88s WALL (     150 calls)
     fftw         :  78200.80s CPU  87286.14s WALL ( 7095192 calls)
     interpolate  :     11.12s CPU     12.61s WALL (      76 calls)

     Parallel routines
     fft_scatt_xy :    345.55s CPU    346.94s WALL ( 7096330 calls)
     fft_scatt_yz :  75702.73s CPU  84797.32s WALL ( 7096330 calls)

     PAW routines
     PAW_pot      :     21.62s CPU     23.94s WALL (      38 calls)

     PWSCF        :   1d 5h13m CPU   1d 8h38m WALL


   This run was terminated on:  20:45: 2   1Feb2023            

=------------------------------------------------------------------------------=
   JOB DONE.
=------------------------------------------------------------------------------=
Note: The following floating-point exceptions are signalling: IEEE_UNDERFLOW_FLAG IEEE_DENORMAL
Note: The following floating-point exceptions are signalling: IEEE_DENORMAL
Note: The following floating-point exceptions are signalling: IEEE_DENORMAL
Note: The following floating-point exceptions are signalling: IEEE_DENORMAL
Note: The following floating-point exceptions are signalling: IEEE_DENORMAL
Note: The following floating-point exceptions are signalling: IEEE_DENORMAL
Note: The following floating-point exceptions are signalling: IEEE_DENORMAL
Note: The following floating-point exceptions are signalling: IEEE_DENORMAL
Note: The following floating-point exceptions are signalling: IEEE_DENORMAL
Note: The following floating-point exceptions are signalling: IEEE_DENORMAL
Note: The following floating-point exceptions are signalling: IEEE_DENORMAL
Note: The following floating-point exceptions are signalling: IEEE_DENORMAL
Note: The following floating-point exceptions are signalling: IEEE_DENORMAL
Note: The following floating-point exceptions are signalling: IEEE_DENORMAL
Note: The following floating-point exceptions are signalling: IEEE_DENORMAL
Note: The following floating-point exceptions are signalling: IEEE_DENORMAL
Note: The following floating-point exceptions are signalling: IEEE_DENORMAL
Note: The following floating-point exceptions are signalling: IEEE_DENORMAL
Note: The following floating-point exceptions are signalling: IEEE_DENORMAL
Note: The following floating-point exceptions are signalling: IEEE_DENORMAL
Note: The following floating-point exceptions are signalling: IEEE_DENORMAL
Note: The following floating-point exceptions are signalling: IEEE_DENORMAL
