
     Program PWSCF v.6.7MaX starts on 28Jan2023 at 17:38:24 

     This program is part of the open-source Quantum ESPRESSO suite
     for quantum simulation of materials; please cite
         "P. Giannozzi et al., J. Phys.:Condens. Matter 21 395502 (2009);
         "P. Giannozzi et al., J. Phys.:Condens. Matter 29 465901 (2017);
          URL http://www.quantum-espresso.org", 
     in publications or presentations arising from this work. More details at
     http://www.quantum-espresso.org/quote

     Parallel version (MPI), running on    12 processors

     MPI processes distributed on     1 nodes
     R & G space division:  proc/nbgrp/npool/nimage =      12
     Reading input from scale_3d-03.in

     Current dimensions of program PWSCF are:
     Max number of different atomic species (ntypx) = 10
     Max number of k-points (npk) =  40000
     Max angular momentum in pseudopotentials (lmaxx) =  3
     Message from routine read_pp_mesh:
     mesh size missing, using the one in header
     file Fe.pbe-spn-kjpaw_psl.0.2.1.UPF: wavefunction(s)  3D renormalized
     file O.pbe-n-kjpaw_psl.0.1.UPF: wavefunction(s)  2P renormalized

     Subspace diagonalization in iterative solution of the eigenvalue problem:
     a serial algorithm will be used


     Parallelization info
     --------------------
     sticks:   dense  smooth     PW     G-vecs:    dense   smooth      PW
     Min        1710     633    170               113401    25561    3588
     Max        1711     634    172               113402    25563    3589
     Sum       20521    7599   2049              1360823   306739   43063



     bravais-lattice index     =            0
     lattice parameter (alat)  =      19.9928  a.u.
     unit-cell volume          =    2270.1860 (a.u.)^3
     number of atoms/cell      =           25
     number of atomic types    =            4
     number of electrons       =       189.00
     number of Kohn-Sham states=          114
     kinetic-energy cutoff     =     100.0000  Ry
     charge density cutoff     =    1080.0000  Ry
     scf convergence threshold =      2.0E-10
     mixing beta               =       0.4000
     number of iterations used =            8  plain     mixing
     Exchange-correlation= PBE
                           (   1   4   3   4   0   0   0)

     celldm(1)=  19.992808  celldm(2)=   0.000000  celldm(3)=   0.000000
     celldm(4)=   0.000000  celldm(5)=   0.000000  celldm(6)=   0.000000

     crystal axes: (cart. coord. in units of alat)
               a(1) = (   1.000000   0.000000   0.000000 )  
               a(2) = (   0.000000   0.597590   0.000000 )  
               a(3) = (   0.000000   0.000000   0.475375 )  

     reciprocal axes: (cart. coord. in units 2 pi/alat)
               b(1) = (  1.000000  0.000000  0.000000 )  
               b(2) = (  0.000000  1.673388  0.000000 )  
               b(3) = (  0.000000  0.000000  2.103600 )  


     PseudoPot. # 1 for Fe read from file:
     /opt/QEpot/SSSP_precision_pseudos/Fe.pbe-spn-kjpaw_psl.0.2.1.UPF
     MD5 check sum: e86618425769142926afa95317d90200
     Pseudo is Projector augmented-wave + core cor, Zval = 16.0
     Generated using "atomic" code by A. Dal Corso  v.5.0.99 svn rev. 10869
     Shape of augmentation charge: PSQ
     Using radial grid of 1191 points,  6 beta functions with: 
                l(1) =   0
                l(2) =   0
                l(3) =   1
                l(4) =   1
                l(5) =   2
                l(6) =   2
     Q(r) pseudized with 0 coefficients 


     PseudoPot. # 2 for Na read from file:
     /opt/QEpot/SSSP_precision_pseudos/Na_ONCV_PBE-1.0.oncvpsp.upf
     MD5 check sum: 24a298df0a6742ae313db96548fdb2a4
     Pseudo is Norm-conserving, Zval =  9.0
     Generated using ONCVPSP code by D. R. Hamann
     Using radial grid of 1992 points,  4 beta functions with: 
                l(1) =   0
                l(2) =   0
                l(3) =   1
                l(4) =   1

     PseudoPot. # 3 for O  read from file:
     /opt/QEpot/SSSP_precision_pseudos/O.pbe-n-kjpaw_psl.0.1.UPF
     MD5 check sum: 0234752ac141de4415c5fc33072bef88
     Pseudo is Projector augmented-wave + core cor, Zval =  6.0
     Generated using "atomic" code by A. Dal Corso  v.5.0.99 svn rev. 10869
     Shape of augmentation charge: BESSEL
     Using radial grid of 1095 points,  4 beta functions with: 
                l(1) =   0
                l(2) =   0
                l(3) =   1
                l(4) =   1
     Q(r) pseudized with 0 coefficients 


     PseudoPot. # 4 for P  read from file:
     /opt/QEpot/SSSP_precision_pseudos/P.pbe-n-rrkjus_psl.1.0.0.UPF
     MD5 check sum: 8b930f418f0a4573dca56cd030ffe088
     Pseudo is Ultrasoft + core correction, Zval =  5.0
     Generated using "atomic" code by A. Dal Corso  v.5.1
     Using radial grid of 1147 points,  6 beta functions with: 
                l(1) =   0
                l(2) =   0
                l(3) =   1
                l(4) =   1
                l(5) =   2
                l(6) =   2
     Q(r) pseudized with 0 coefficients 


     atomic species   valence    mass     pseudopotential
        Fe            16.00    55.84500     Fe( 1.00)
        Na             9.00    22.98977     Na( 1.00)
        O              6.00    15.99940     O ( 1.00)
        P              5.00    30.97376     P ( 1.00)

     Starting magnetic structure 
     atomic species   magnetization
        Fe           0.312
        Na           0.000
        O            0.000
        P            0.000

     No symmetry found


                                    s                        frac. trans.

      isym =  1     identity                                     

 cryst.   s( 1) = (     1          0          0      )
                  (     0          1          0      )
                  (     0          0          1      )

 cart.    s( 1) = (  1.0000000  0.0000000  0.0000000 )
                  (  0.0000000  1.0000000  0.0000000 )
                  (  0.0000000  0.0000000  1.0000000 )


   Cartesian axes

     site n.     atom                  positions (alat units)
         1           Na  tau(   1) = (   0.9999980   0.0000000   0.0000029  )
         2           Fe  tau(   2) = (   0.2867560   0.4460794   0.4706484  )
         3           Fe  tau(   3) = (   0.2233660   0.1521093   0.2355671  )
         4           Fe  tau(   4) = (   0.7132500   0.1515135   0.0047295  )
         5           Fe  tau(   5) = (   0.7766390   0.4454836   0.2398112  )
         6           P   tau(   6) = (   0.1081020   0.4457710   0.2117004  )
         7           P   tau(   7) = (   0.3915960   0.1487097   0.4492764  )
         8           P   tau(   8) = (   0.8919040   0.1518219   0.2636794  )
         9           P   tau(   9) = (   0.6084100   0.4488833   0.0261010  )
        10           O   tau(  10) = (   0.1288530   0.4505057   0.3586052  )
        11           O   tau(  11) = (   0.3681240   0.1483858   0.1200499  )
        12           O   tau(  12) = (   0.8711530   0.1470872   0.1167717  )
        13           O   tau(  13) = (   0.6318820   0.4492071   0.3553289  )
        14           O   tau(  14) = (   0.4626860   0.4491420   0.0550708  )
        15           O   tau(  15) = (   0.0379730   0.1464053   0.2960539  )
        16           O   tau(  16) = (   0.5373200   0.1484509   0.4203075  )
        17           O   tau(  17) = (   0.9620320   0.4511876   0.1793240  )
        18           O   tau(  18) = (   0.1766340   0.5619359   0.1403822  )
        19           O   tau(  19) = (   0.3194030   0.0336198   0.3812131  )
        20           O   tau(  20) = (   0.8223270   0.2689908   0.3287008  )
        21           O   tau(  21) = (   0.6786820   0.3316977   0.0933495  )
        22           O   tau(  22) = (   0.8233720   0.0356570   0.3349957  )
        23           O   tau(  23) = (   0.6806030   0.5639737   0.0941648  )
        24           O   tau(  24) = (   0.1776790   0.3286021   0.1466771  )
        25           O   tau(  25) = (   0.3213240   0.2658952   0.3820284  )

   Crystallographic axes

     site n.     atom                  positions (cryst. coord.)
         1           Na  tau(   1) = (  0.9999980  0.0000000  0.0000060  )
         2           Fe  tau(   2) = (  0.2867560  0.7464640  0.9900560  )
         3           Fe  tau(   3) = (  0.2233660  0.2545380  0.4955390  )
         4           Fe  tau(   4) = (  0.7132500  0.2535410  0.0099490  )
         5           Fe  tau(   5) = (  0.7766390  0.7454670  0.5044670  )
         6           P   tau(   6) = (  0.1081020  0.7459480  0.4453330  )
         7           P   tau(   7) = (  0.3915960  0.2488490  0.9450980  )
         8           P   tau(   8) = (  0.8919040  0.2540570  0.5546760  )
         9           P   tau(   9) = (  0.6084100  0.7511560  0.0549060  )
        10           O   tau(  10) = (  0.1288530  0.7538710  0.7543620  )
        11           O   tau(  11) = (  0.3681240  0.2483070  0.2525370  )
        12           O   tau(  12) = (  0.8711530  0.2461340  0.2456410  )
        13           O   tau(  13) = (  0.6318820  0.7516980  0.7474700  )
        14           O   tau(  14) = (  0.4626860  0.7515890  0.1158470  )
        15           O   tau(  15) = (  0.0379730  0.2449930  0.6227790  )
        16           O   tau(  16) = (  0.5373200  0.2484160  0.8841590  )
        17           O   tau(  17) = (  0.9620320  0.7550120  0.3772260  )
        18           O   tau(  18) = (  0.1766340  0.9403370  0.2953080  )
        19           O   tau(  19) = (  0.3194030  0.0562590  0.8019200  )
        20           O   tau(  20) = (  0.8223270  0.4501260  0.6914550  )
        21           O   tau(  21) = (  0.6786820  0.5550590  0.1963700  )
        22           O   tau(  22) = (  0.8233720  0.0596680  0.7046970  )
        23           O   tau(  23) = (  0.6806030  0.9437470  0.1980850  )
        24           O   tau(  24) = (  0.1776790  0.5498790  0.3085500  )
        25           O   tau(  25) = (  0.3213240  0.4449460  0.8036350  )

     number of k points=   158  Marzari-Vanderbilt smearing, width (Ry)=  0.0073
                       cart. coord. in units 2pi/alat
        k(    1) = (   0.0000000   0.0000000   0.0000000), wk =   0.0031746
        k(    2) = (   0.0000000   0.0000000   0.2337334), wk =   0.0063492
        k(    3) = (   0.0000000   0.0000000   0.4674667), wk =   0.0063492
        k(    4) = (   0.0000000   0.0000000   0.7012001), wk =   0.0063492
        k(    5) = (   0.0000000   0.0000000   0.9349334), wk =   0.0063492
        k(    6) = (   0.0000000   0.2390555   0.0000000), wk =   0.0063492
        k(    7) = (   0.0000000   0.2390555   0.2337334), wk =   0.0063492
        k(    8) = (   0.0000000   0.2390555   0.4674667), wk =   0.0063492
        k(    9) = (   0.0000000   0.2390555   0.7012001), wk =   0.0063492
        k(   10) = (   0.0000000   0.2390555   0.9349334), wk =   0.0063492
        k(   11) = (   0.0000000   0.4781110   0.0000000), wk =   0.0063492
        k(   12) = (   0.0000000   0.4781110   0.2337334), wk =   0.0063492
        k(   13) = (   0.0000000   0.4781110   0.4674667), wk =   0.0063492
        k(   14) = (   0.0000000   0.4781110   0.7012001), wk =   0.0063492
        k(   15) = (   0.0000000   0.4781110   0.9349334), wk =   0.0063492
        k(   16) = (   0.0000000   0.7171664   0.0000000), wk =   0.0063492
        k(   17) = (   0.0000000   0.7171664   0.2337334), wk =   0.0063492
        k(   18) = (   0.0000000   0.7171664   0.4674667), wk =   0.0063492
        k(   19) = (   0.0000000   0.7171664   0.7012001), wk =   0.0063492
        k(   20) = (   0.0000000   0.7171664   0.9349334), wk =   0.0063492
        k(   21) = (   0.2000000   0.0000000   0.0000000), wk =   0.0063492
        k(   22) = (   0.2000000   0.0000000   0.2337334), wk =   0.0063492
        k(   23) = (   0.2000000   0.0000000   0.4674667), wk =   0.0063492
        k(   24) = (   0.2000000   0.0000000   0.7012001), wk =   0.0063492
        k(   25) = (   0.2000000   0.0000000   0.9349334), wk =   0.0063492
        k(   26) = (   0.2000000   0.2390555   0.0000000), wk =   0.0063492
        k(   27) = (   0.2000000   0.2390555   0.2337334), wk =   0.0063492
        k(   28) = (   0.2000000   0.2390555   0.4674667), wk =   0.0063492
        k(   29) = (   0.2000000   0.2390555   0.7012001), wk =   0.0063492
        k(   30) = (   0.2000000   0.2390555   0.9349334), wk =   0.0063492
        k(   31) = (   0.2000000   0.4781110   0.0000000), wk =   0.0063492
        k(   32) = (   0.2000000   0.4781110   0.2337334), wk =   0.0063492
        k(   33) = (   0.2000000   0.4781110   0.4674667), wk =   0.0063492
        k(   34) = (   0.2000000   0.4781110   0.7012001), wk =   0.0063492
        k(   35) = (   0.2000000   0.4781110   0.9349334), wk =   0.0063492
        k(   36) = (   0.2000000   0.7171664   0.0000000), wk =   0.0063492
        k(   37) = (   0.2000000   0.7171664   0.2337334), wk =   0.0063492
        k(   38) = (   0.2000000   0.7171664   0.4674667), wk =   0.0063492
        k(   39) = (   0.2000000   0.7171664   0.7012001), wk =   0.0063492
        k(   40) = (   0.2000000   0.7171664   0.9349334), wk =   0.0063492
        k(   41) = (   0.4000000   0.0000000   0.0000000), wk =   0.0063492
        k(   42) = (   0.4000000   0.0000000   0.2337334), wk =   0.0063492
        k(   43) = (   0.4000000   0.0000000   0.4674667), wk =   0.0063492
        k(   44) = (   0.4000000   0.0000000   0.7012001), wk =   0.0063492
        k(   45) = (   0.4000000   0.0000000   0.9349334), wk =   0.0063492
        k(   46) = (   0.4000000   0.2390555   0.0000000), wk =   0.0063492
        k(   47) = (   0.4000000   0.2390555   0.2337334), wk =   0.0063492
        k(   48) = (   0.4000000   0.2390555   0.4674667), wk =   0.0063492
        k(   49) = (   0.4000000   0.2390555   0.7012001), wk =   0.0063492
        k(   50) = (   0.4000000   0.2390555   0.9349334), wk =   0.0063492
        k(   51) = (   0.4000000   0.4781110   0.0000000), wk =   0.0063492
        k(   52) = (   0.4000000   0.4781110   0.2337334), wk =   0.0063492
        k(   53) = (   0.4000000   0.4781110   0.4674667), wk =   0.0063492
        k(   54) = (   0.4000000   0.4781110   0.7012001), wk =   0.0063492
        k(   55) = (   0.4000000   0.4781110   0.9349334), wk =   0.0063492
        k(   56) = (   0.4000000   0.7171664   0.0000000), wk =   0.0063492
        k(   57) = (   0.4000000   0.7171664   0.2337334), wk =   0.0063492
        k(   58) = (   0.4000000   0.7171664   0.4674667), wk =   0.0063492
        k(   59) = (   0.4000000   0.7171664   0.7012001), wk =   0.0063492
        k(   60) = (   0.4000000   0.7171664   0.9349334), wk =   0.0063492
        k(   61) = (   0.0000000  -0.2390555   0.2337334), wk =   0.0063492
        k(   62) = (   0.0000000  -0.2390555   0.4674667), wk =   0.0063492
        k(   63) = (   0.0000000  -0.2390555   0.7012001), wk =   0.0063492
        k(   64) = (   0.0000000  -0.2390555   0.9349334), wk =   0.0063492
        k(   65) = (   0.0000000  -0.4781110   0.2337334), wk =   0.0063492
        k(   66) = (   0.0000000  -0.4781110   0.4674667), wk =   0.0063492
        k(   67) = (   0.0000000  -0.4781110   0.7012001), wk =   0.0063492
        k(   68) = (   0.0000000  -0.4781110   0.9349334), wk =   0.0063492
        k(   69) = (   0.0000000  -0.7171664   0.2337334), wk =   0.0063492
        k(   70) = (   0.0000000  -0.7171664   0.4674667), wk =   0.0063492
        k(   71) = (   0.0000000  -0.7171664   0.7012001), wk =   0.0063492
        k(   72) = (   0.0000000  -0.7171664   0.9349334), wk =   0.0063492
        k(   73) = (  -0.2000000   0.0000000   0.2337334), wk =   0.0063492
        k(   74) = (  -0.2000000   0.0000000   0.4674667), wk =   0.0063492
        k(   75) = (  -0.2000000   0.0000000   0.7012001), wk =   0.0063492
        k(   76) = (  -0.2000000   0.0000000   0.9349334), wk =   0.0063492
        k(   77) = (  -0.2000000   0.2390555   0.0000000), wk =   0.0063492
        k(   78) = (  -0.2000000  -0.2390555   0.2337334), wk =   0.0063492
        k(   79) = (  -0.2000000   0.2390555  -0.2337334), wk =   0.0063492
        k(   80) = (   0.2000000  -0.2390555  -0.2337334), wk =   0.0063492
        k(   81) = (  -0.2000000  -0.2390555   0.4674667), wk =   0.0063492
        k(   82) = (  -0.2000000   0.2390555  -0.4674667), wk =   0.0063492
        k(   83) = (   0.2000000  -0.2390555  -0.4674667), wk =   0.0063492
        k(   84) = (  -0.2000000  -0.2390555   0.7012001), wk =   0.0063492
        k(   85) = (  -0.2000000   0.2390555  -0.7012001), wk =   0.0063492
        k(   86) = (   0.2000000  -0.2390555  -0.7012001), wk =   0.0063492
        k(   87) = (  -0.2000000  -0.2390555   0.9349334), wk =   0.0063492
        k(   88) = (  -0.2000000   0.2390555  -0.9349334), wk =   0.0063492
        k(   89) = (   0.2000000  -0.2390555  -0.9349334), wk =   0.0063492
        k(   90) = (  -0.2000000   0.4781110   0.0000000), wk =   0.0063492
        k(   91) = (  -0.2000000  -0.4781110   0.2337334), wk =   0.0063492
        k(   92) = (  -0.2000000   0.4781110  -0.2337334), wk =   0.0063492
        k(   93) = (   0.2000000  -0.4781110  -0.2337334), wk =   0.0063492
        k(   94) = (  -0.2000000  -0.4781110   0.4674667), wk =   0.0063492
        k(   95) = (  -0.2000000   0.4781110  -0.4674667), wk =   0.0063492
        k(   96) = (   0.2000000  -0.4781110  -0.4674667), wk =   0.0063492
        k(   97) = (  -0.2000000  -0.4781110   0.7012001), wk =   0.0063492
        k(   98) = (  -0.2000000   0.4781110  -0.7012001), wk =   0.0063492
        k(   99) = (   0.2000000  -0.4781110  -0.7012001), wk =   0.0063492
        k(  100) = (  -0.2000000  -0.4781110   0.9349334), wk =   0.0063492
        k(  101) = (  -0.2000000   0.4781110  -0.9349334), wk =   0.0063492
        k(  102) = (   0.2000000  -0.4781110  -0.9349334), wk =   0.0063492
        k(  103) = (  -0.2000000   0.7171664   0.0000000), wk =   0.0063492
        k(  104) = (  -0.2000000  -0.7171664   0.2337334), wk =   0.0063492
        k(  105) = (  -0.2000000   0.7171664  -0.2337334), wk =   0.0063492
        k(  106) = (   0.2000000  -0.7171664  -0.2337334), wk =   0.0063492
        k(  107) = (  -0.2000000  -0.7171664   0.4674667), wk =   0.0063492
        k(  108) = (  -0.2000000   0.7171664  -0.4674667), wk =   0.0063492
        k(  109) = (   0.2000000  -0.7171664  -0.4674667), wk =   0.0063492
        k(  110) = (  -0.2000000  -0.7171664   0.7012001), wk =   0.0063492
        k(  111) = (  -0.2000000   0.7171664  -0.7012001), wk =   0.0063492
        k(  112) = (   0.2000000  -0.7171664  -0.7012001), wk =   0.0063492
        k(  113) = (  -0.2000000  -0.7171664   0.9349334), wk =   0.0063492
        k(  114) = (  -0.2000000   0.7171664  -0.9349334), wk =   0.0063492
        k(  115) = (   0.2000000  -0.7171664  -0.9349334), wk =   0.0063492
        k(  116) = (  -0.4000000   0.0000000   0.2337334), wk =   0.0063492
        k(  117) = (  -0.4000000   0.0000000   0.4674667), wk =   0.0063492
        k(  118) = (  -0.4000000   0.0000000   0.7012001), wk =   0.0063492
        k(  119) = (  -0.4000000   0.0000000   0.9349334), wk =   0.0063492
        k(  120) = (  -0.4000000   0.2390555   0.0000000), wk =   0.0063492
        k(  121) = (  -0.4000000  -0.2390555   0.2337334), wk =   0.0063492
        k(  122) = (  -0.4000000   0.2390555  -0.2337334), wk =   0.0063492
        k(  123) = (   0.4000000  -0.2390555  -0.2337334), wk =   0.0063492
        k(  124) = (  -0.4000000  -0.2390555   0.4674667), wk =   0.0063492
        k(  125) = (  -0.4000000   0.2390555  -0.4674667), wk =   0.0063492
        k(  126) = (   0.4000000  -0.2390555  -0.4674667), wk =   0.0063492
        k(  127) = (  -0.4000000  -0.2390555   0.7012001), wk =   0.0063492
        k(  128) = (  -0.4000000   0.2390555  -0.7012001), wk =   0.0063492
        k(  129) = (   0.4000000  -0.2390555  -0.7012001), wk =   0.0063492
        k(  130) = (  -0.4000000  -0.2390555   0.9349334), wk =   0.0063492
        k(  131) = (  -0.4000000   0.2390555  -0.9349334), wk =   0.0063492
        k(  132) = (   0.4000000  -0.2390555  -0.9349334), wk =   0.0063492
        k(  133) = (  -0.4000000   0.4781110   0.0000000), wk =   0.0063492
        k(  134) = (  -0.4000000  -0.4781110   0.2337334), wk =   0.0063492
        k(  135) = (  -0.4000000   0.4781110  -0.2337334), wk =   0.0063492
        k(  136) = (   0.4000000  -0.4781110  -0.2337334), wk =   0.0063492
        k(  137) = (  -0.4000000  -0.4781110   0.4674667), wk =   0.0063492
        k(  138) = (  -0.4000000   0.4781110  -0.4674667), wk =   0.0063492
        k(  139) = (   0.4000000  -0.4781110  -0.4674667), wk =   0.0063492
        k(  140) = (  -0.4000000  -0.4781110   0.7012001), wk =   0.0063492
        k(  141) = (  -0.4000000   0.4781110  -0.7012001), wk =   0.0063492
        k(  142) = (   0.4000000  -0.4781110  -0.7012001), wk =   0.0063492
        k(  143) = (  -0.4000000  -0.4781110   0.9349334), wk =   0.0063492
        k(  144) = (  -0.4000000   0.4781110  -0.9349334), wk =   0.0063492
        k(  145) = (   0.4000000  -0.4781110  -0.9349334), wk =   0.0063492
        k(  146) = (  -0.4000000   0.7171664   0.0000000), wk =   0.0063492
        k(  147) = (  -0.4000000  -0.7171664   0.2337334), wk =   0.0063492
        k(  148) = (  -0.4000000   0.7171664  -0.2337334), wk =   0.0063492
        k(  149) = (   0.4000000  -0.7171664  -0.2337334), wk =   0.0063492
        k(  150) = (  -0.4000000  -0.7171664   0.4674667), wk =   0.0063492
        k(  151) = (  -0.4000000   0.7171664  -0.4674667), wk =   0.0063492
        k(  152) = (   0.4000000  -0.7171664  -0.4674667), wk =   0.0063492
        k(  153) = (  -0.4000000  -0.7171664   0.7012001), wk =   0.0063492
        k(  154) = (  -0.4000000   0.7171664  -0.7012001), wk =   0.0063492
        k(  155) = (   0.4000000  -0.7171664  -0.7012001), wk =   0.0063492
        k(  156) = (  -0.4000000  -0.7171664   0.9349334), wk =   0.0063492
        k(  157) = (  -0.4000000   0.7171664  -0.9349334), wk =   0.0063492
        k(  158) = (   0.4000000  -0.7171664  -0.9349334), wk =   0.0063492

                       cryst. coord.
        k(    1) = (   0.0000000   0.0000000   0.0000000), wk =   0.0031746
        k(    2) = (   0.0000000   0.0000000   0.1111111), wk =   0.0063492
        k(    3) = (   0.0000000   0.0000000   0.2222222), wk =   0.0063492
        k(    4) = (   0.0000000   0.0000000   0.3333333), wk =   0.0063492
        k(    5) = (   0.0000000   0.0000000   0.4444444), wk =   0.0063492
        k(    6) = (   0.0000000   0.1428571   0.0000000), wk =   0.0063492
        k(    7) = (   0.0000000   0.1428571   0.1111111), wk =   0.0063492
        k(    8) = (   0.0000000   0.1428571   0.2222222), wk =   0.0063492
        k(    9) = (   0.0000000   0.1428571   0.3333333), wk =   0.0063492
        k(   10) = (   0.0000000   0.1428571   0.4444444), wk =   0.0063492
        k(   11) = (   0.0000000   0.2857143   0.0000000), wk =   0.0063492
        k(   12) = (   0.0000000   0.2857143   0.1111111), wk =   0.0063492
        k(   13) = (   0.0000000   0.2857143   0.2222222), wk =   0.0063492
        k(   14) = (   0.0000000   0.2857143   0.3333333), wk =   0.0063492
        k(   15) = (   0.0000000   0.2857143   0.4444444), wk =   0.0063492
        k(   16) = (   0.0000000   0.4285714   0.0000000), wk =   0.0063492
        k(   17) = (   0.0000000   0.4285714   0.1111111), wk =   0.0063492
        k(   18) = (   0.0000000   0.4285714   0.2222222), wk =   0.0063492
        k(   19) = (   0.0000000   0.4285714   0.3333333), wk =   0.0063492
        k(   20) = (   0.0000000   0.4285714   0.4444444), wk =   0.0063492
        k(   21) = (   0.2000000   0.0000000   0.0000000), wk =   0.0063492
        k(   22) = (   0.2000000   0.0000000   0.1111111), wk =   0.0063492
        k(   23) = (   0.2000000   0.0000000   0.2222222), wk =   0.0063492
        k(   24) = (   0.2000000   0.0000000   0.3333333), wk =   0.0063492
        k(   25) = (   0.2000000   0.0000000   0.4444444), wk =   0.0063492
        k(   26) = (   0.2000000   0.1428571   0.0000000), wk =   0.0063492
        k(   27) = (   0.2000000   0.1428571   0.1111111), wk =   0.0063492
        k(   28) = (   0.2000000   0.1428571   0.2222222), wk =   0.0063492
        k(   29) = (   0.2000000   0.1428571   0.3333333), wk =   0.0063492
        k(   30) = (   0.2000000   0.1428571   0.4444444), wk =   0.0063492
        k(   31) = (   0.2000000   0.2857143   0.0000000), wk =   0.0063492
        k(   32) = (   0.2000000   0.2857143   0.1111111), wk =   0.0063492
        k(   33) = (   0.2000000   0.2857143   0.2222222), wk =   0.0063492
        k(   34) = (   0.2000000   0.2857143   0.3333333), wk =   0.0063492
        k(   35) = (   0.2000000   0.2857143   0.4444444), wk =   0.0063492
        k(   36) = (   0.2000000   0.4285714   0.0000000), wk =   0.0063492
        k(   37) = (   0.2000000   0.4285714   0.1111111), wk =   0.0063492
        k(   38) = (   0.2000000   0.4285714   0.2222222), wk =   0.0063492
        k(   39) = (   0.2000000   0.4285714   0.3333333), wk =   0.0063492
        k(   40) = (   0.2000000   0.4285714   0.4444444), wk =   0.0063492
        k(   41) = (   0.4000000   0.0000000   0.0000000), wk =   0.0063492
        k(   42) = (   0.4000000   0.0000000   0.1111111), wk =   0.0063492
        k(   43) = (   0.4000000   0.0000000   0.2222222), wk =   0.0063492
        k(   44) = (   0.4000000   0.0000000   0.3333333), wk =   0.0063492
        k(   45) = (   0.4000000   0.0000000   0.4444444), wk =   0.0063492
        k(   46) = (   0.4000000   0.1428571   0.0000000), wk =   0.0063492
        k(   47) = (   0.4000000   0.1428571   0.1111111), wk =   0.0063492
        k(   48) = (   0.4000000   0.1428571   0.2222222), wk =   0.0063492
        k(   49) = (   0.4000000   0.1428571   0.3333333), wk =   0.0063492
        k(   50) = (   0.4000000   0.1428571   0.4444444), wk =   0.0063492
        k(   51) = (   0.4000000   0.2857143   0.0000000), wk =   0.0063492
        k(   52) = (   0.4000000   0.2857143   0.1111111), wk =   0.0063492
        k(   53) = (   0.4000000   0.2857143   0.2222222), wk =   0.0063492
        k(   54) = (   0.4000000   0.2857143   0.3333333), wk =   0.0063492
        k(   55) = (   0.4000000   0.2857143   0.4444444), wk =   0.0063492
        k(   56) = (   0.4000000   0.4285714   0.0000000), wk =   0.0063492
        k(   57) = (   0.4000000   0.4285714   0.1111111), wk =   0.0063492
        k(   58) = (   0.4000000   0.4285714   0.2222222), wk =   0.0063492
        k(   59) = (   0.4000000   0.4285714   0.3333333), wk =   0.0063492
        k(   60) = (   0.4000000   0.4285714   0.4444444), wk =   0.0063492
        k(   61) = (   0.0000000  -0.1428571   0.1111111), wk =   0.0063492
        k(   62) = (   0.0000000  -0.1428571   0.2222222), wk =   0.0063492
        k(   63) = (   0.0000000  -0.1428571   0.3333333), wk =   0.0063492
        k(   64) = (   0.0000000  -0.1428571   0.4444444), wk =   0.0063492
        k(   65) = (   0.0000000  -0.2857143   0.1111111), wk =   0.0063492
        k(   66) = (   0.0000000  -0.2857143   0.2222222), wk =   0.0063492
        k(   67) = (   0.0000000  -0.2857143   0.3333333), wk =   0.0063492
        k(   68) = (   0.0000000  -0.2857143   0.4444444), wk =   0.0063492
        k(   69) = (   0.0000000  -0.4285714   0.1111111), wk =   0.0063492
        k(   70) = (   0.0000000  -0.4285714   0.2222222), wk =   0.0063492
        k(   71) = (   0.0000000  -0.4285714   0.3333333), wk =   0.0063492
        k(   72) = (   0.0000000  -0.4285714   0.4444444), wk =   0.0063492
        k(   73) = (  -0.2000000   0.0000000   0.1111111), wk =   0.0063492
        k(   74) = (  -0.2000000   0.0000000   0.2222222), wk =   0.0063492
        k(   75) = (  -0.2000000   0.0000000   0.3333333), wk =   0.0063492
        k(   76) = (  -0.2000000   0.0000000   0.4444444), wk =   0.0063492
        k(   77) = (  -0.2000000   0.1428571   0.0000000), wk =   0.0063492
        k(   78) = (  -0.2000000  -0.1428571   0.1111111), wk =   0.0063492
        k(   79) = (  -0.2000000   0.1428571  -0.1111111), wk =   0.0063492
        k(   80) = (   0.2000000  -0.1428571  -0.1111111), wk =   0.0063492
        k(   81) = (  -0.2000000  -0.1428571   0.2222222), wk =   0.0063492
        k(   82) = (  -0.2000000   0.1428571  -0.2222222), wk =   0.0063492
        k(   83) = (   0.2000000  -0.1428571  -0.2222222), wk =   0.0063492
        k(   84) = (  -0.2000000  -0.1428571   0.3333333), wk =   0.0063492
        k(   85) = (  -0.2000000   0.1428571  -0.3333333), wk =   0.0063492
        k(   86) = (   0.2000000  -0.1428571  -0.3333333), wk =   0.0063492
        k(   87) = (  -0.2000000  -0.1428571   0.4444444), wk =   0.0063492
        k(   88) = (  -0.2000000   0.1428571  -0.4444444), wk =   0.0063492
        k(   89) = (   0.2000000  -0.1428571  -0.4444444), wk =   0.0063492
        k(   90) = (  -0.2000000   0.2857143   0.0000000), wk =   0.0063492
        k(   91) = (  -0.2000000  -0.2857143   0.1111111), wk =   0.0063492
        k(   92) = (  -0.2000000   0.2857143  -0.1111111), wk =   0.0063492
        k(   93) = (   0.2000000  -0.2857143  -0.1111111), wk =   0.0063492
        k(   94) = (  -0.2000000  -0.2857143   0.2222222), wk =   0.0063492
        k(   95) = (  -0.2000000   0.2857143  -0.2222222), wk =   0.0063492
        k(   96) = (   0.2000000  -0.2857143  -0.2222222), wk =   0.0063492
        k(   97) = (  -0.2000000  -0.2857143   0.3333333), wk =   0.0063492
        k(   98) = (  -0.2000000   0.2857143  -0.3333333), wk =   0.0063492
        k(   99) = (   0.2000000  -0.2857143  -0.3333333), wk =   0.0063492
        k(  100) = (  -0.2000000  -0.2857143   0.4444444), wk =   0.0063492
        k(  101) = (  -0.2000000   0.2857143  -0.4444444), wk =   0.0063492
        k(  102) = (   0.2000000  -0.2857143  -0.4444444), wk =   0.0063492
        k(  103) = (  -0.2000000   0.4285714   0.0000000), wk =   0.0063492
        k(  104) = (  -0.2000000  -0.4285714   0.1111111), wk =   0.0063492
        k(  105) = (  -0.2000000   0.4285714  -0.1111111), wk =   0.0063492
        k(  106) = (   0.2000000  -0.4285714  -0.1111111), wk =   0.0063492
        k(  107) = (  -0.2000000  -0.4285714   0.2222222), wk =   0.0063492
        k(  108) = (  -0.2000000   0.4285714  -0.2222222), wk =   0.0063492
        k(  109) = (   0.2000000  -0.4285714  -0.2222222), wk =   0.0063492
        k(  110) = (  -0.2000000  -0.4285714   0.3333333), wk =   0.0063492
        k(  111) = (  -0.2000000   0.4285714  -0.3333333), wk =   0.0063492
        k(  112) = (   0.2000000  -0.4285714  -0.3333333), wk =   0.0063492
        k(  113) = (  -0.2000000  -0.4285714   0.4444444), wk =   0.0063492
        k(  114) = (  -0.2000000   0.4285714  -0.4444444), wk =   0.0063492
        k(  115) = (   0.2000000  -0.4285714  -0.4444444), wk =   0.0063492
        k(  116) = (  -0.4000000   0.0000000   0.1111111), wk =   0.0063492
        k(  117) = (  -0.4000000   0.0000000   0.2222222), wk =   0.0063492
        k(  118) = (  -0.4000000   0.0000000   0.3333333), wk =   0.0063492
        k(  119) = (  -0.4000000   0.0000000   0.4444444), wk =   0.0063492
        k(  120) = (  -0.4000000   0.1428571   0.0000000), wk =   0.0063492
        k(  121) = (  -0.4000000  -0.1428571   0.1111111), wk =   0.0063492
        k(  122) = (  -0.4000000   0.1428571  -0.1111111), wk =   0.0063492
        k(  123) = (   0.4000000  -0.1428571  -0.1111111), wk =   0.0063492
        k(  124) = (  -0.4000000  -0.1428571   0.2222222), wk =   0.0063492
        k(  125) = (  -0.4000000   0.1428571  -0.2222222), wk =   0.0063492
        k(  126) = (   0.4000000  -0.1428571  -0.2222222), wk =   0.0063492
        k(  127) = (  -0.4000000  -0.1428571   0.3333333), wk =   0.0063492
        k(  128) = (  -0.4000000   0.1428571  -0.3333333), wk =   0.0063492
        k(  129) = (   0.4000000  -0.1428571  -0.3333333), wk =   0.0063492
        k(  130) = (  -0.4000000  -0.1428571   0.4444444), wk =   0.0063492
        k(  131) = (  -0.4000000   0.1428571  -0.4444444), wk =   0.0063492
        k(  132) = (   0.4000000  -0.1428571  -0.4444444), wk =   0.0063492
        k(  133) = (  -0.4000000   0.2857143   0.0000000), wk =   0.0063492
        k(  134) = (  -0.4000000  -0.2857143   0.1111111), wk =   0.0063492
        k(  135) = (  -0.4000000   0.2857143  -0.1111111), wk =   0.0063492
        k(  136) = (   0.4000000  -0.2857143  -0.1111111), wk =   0.0063492
        k(  137) = (  -0.4000000  -0.2857143   0.2222222), wk =   0.0063492
        k(  138) = (  -0.4000000   0.2857143  -0.2222222), wk =   0.0063492
        k(  139) = (   0.4000000  -0.2857143  -0.2222222), wk =   0.0063492
        k(  140) = (  -0.4000000  -0.2857143   0.3333333), wk =   0.0063492
        k(  141) = (  -0.4000000   0.2857143  -0.3333333), wk =   0.0063492
        k(  142) = (   0.4000000  -0.2857143  -0.3333333), wk =   0.0063492
        k(  143) = (  -0.4000000  -0.2857143   0.4444444), wk =   0.0063492
        k(  144) = (  -0.4000000   0.2857143  -0.4444444), wk =   0.0063492
        k(  145) = (   0.4000000  -0.2857143  -0.4444444), wk =   0.0063492
        k(  146) = (  -0.4000000   0.4285714   0.0000000), wk =   0.0063492
        k(  147) = (  -0.4000000  -0.4285714   0.1111111), wk =   0.0063492
        k(  148) = (  -0.4000000   0.4285714  -0.1111111), wk =   0.0063492
        k(  149) = (   0.4000000  -0.4285714  -0.1111111), wk =   0.0063492
        k(  150) = (  -0.4000000  -0.4285714   0.2222222), wk =   0.0063492
        k(  151) = (  -0.4000000   0.4285714  -0.2222222), wk =   0.0063492
        k(  152) = (   0.4000000  -0.4285714  -0.2222222), wk =   0.0063492
        k(  153) = (  -0.4000000  -0.4285714   0.3333333), wk =   0.0063492
        k(  154) = (  -0.4000000   0.4285714  -0.3333333), wk =   0.0063492
        k(  155) = (   0.4000000  -0.4285714  -0.3333333), wk =   0.0063492
        k(  156) = (  -0.4000000  -0.4285714   0.4444444), wk =   0.0063492
        k(  157) = (  -0.4000000   0.4285714  -0.4444444), wk =   0.0063492
        k(  158) = (   0.4000000  -0.4285714  -0.4444444), wk =   0.0063492

     Dense  grid:  1360823 G-vectors     FFT dimensions: ( 216, 125, 100)

     Smooth grid:   306739 G-vectors     FFT dimensions: ( 128,  80,  64)

     Dynamical RAM for                 wfc:       5.56 MB

     Dynamical RAM for     wfc (w. buffer):    1761.24 MB

     Dynamical RAM for           str. fact:       6.92 MB

     Dynamical RAM for           local pot:       0.00 MB

     Dynamical RAM for          nlocal pot:      13.65 MB

     Dynamical RAM for                qrad:      10.54 MB

     Dynamical RAM for          rho,v,vnew:      21.51 MB

     Dynamical RAM for               rhoin:       7.17 MB

     Dynamical RAM for            rho*nmix:      55.37 MB

     Dynamical RAM for           G-vectors:       6.68 MB

     Dynamical RAM for          h,s,v(r/c):       2.38 MB

     Dynamical RAM for          <psi|beta>:       0.49 MB

     Dynamical RAM for                 psi:      11.11 MB

     Dynamical RAM for                hpsi:      11.11 MB

     Dynamical RAM for                spsi:      11.11 MB

     Dynamical RAM for      wfcinit/wfcrot:      13.78 MB

     Dynamical RAM for           addusdens:     351.27 MB

     Dynamical RAM for          addusforce:     403.30 MB

     Dynamical RAM for         addusstress:     350.40 MB

     Estimated static dynamical RAM per process >       1.86 GB

     Estimated max dynamical RAM per process >       2.25 GB

     Estimated total dynamical RAM >      27.03 GB

     Check: negative core charge=   -0.000003
     Generating pointlists ...
     new r_m :   0.0764 (alat units)  1.5277 (a.u.) for type    1
     new r_m :   0.0939 (alat units)  1.8783 (a.u.) for type    2
     new r_m :   0.0611 (alat units)  1.2207 (a.u.) for type    3
     new r_m :   0.0611 (alat units)  1.2207 (a.u.) for type    4

     Initial potential from superposition of free atoms

     starting charge  188.99132, renormalised to  189.00000
     Starting wfcs are  137 randomized atomic wfcs
     Checking if some PAW data can be deallocated... 
       PAW data deallocated on   10 nodes for type:  1
       PAW data deallocated on    4 nodes for type:  3

     total cpu time spent up to now is     2530.1 secs

     Self-consistent Calculation

     iteration #  1     ecut=   100.00 Ry     beta= 0.40
     Davidson diagonalization with overlap
     ethr =  1.00E-02,  avg # of iterations =  2.9

     negative rho (up, down):  0.000E+00 9.494E-05

     total cpu time spent up to now is     9593.9 secs

     total energy              =   -2123.95694155 Ry
     estimated scf accuracy    <       6.80343463 Ry

     total magnetization       =    19.00 Bohr mag/cell
     absolute magnetization    =    19.00 Bohr mag/cell

     iteration #  2     ecut=   100.00 Ry     beta= 0.40
     Davidson diagonalization with overlap
     ethr =  3.60E-03,  avg # of iterations =  2.0

     negative rho (up, down):  0.000E+00 3.661E-05

     total cpu time spent up to now is    16406.2 secs

     total energy              =   -2122.29436607 Ry
     estimated scf accuracy    <      20.91227390 Ry

     total magnetization       =     9.46 Bohr mag/cell
     absolute magnetization    =     9.69 Bohr mag/cell

     iteration #  3     ecut=   100.00 Ry     beta= 0.40
     Davidson diagonalization with overlap
     ethr =  3.60E-03,  avg # of iterations =  2.0

     negative rho (up, down):  0.000E+00 1.632E-04

     total cpu time spent up to now is    22137.8 secs

     total energy              =   -2126.05439429 Ry
     estimated scf accuracy    <       2.35904625 Ry

     total magnetization       =    19.00 Bohr mag/cell
     absolute magnetization    =    19.00 Bohr mag/cell

     iteration #  4     ecut=   100.00 Ry     beta= 0.40
     Davidson diagonalization with overlap
     ethr =  1.25E-03,  avg # of iterations =  2.0

     negative rho (up, down):  0.000E+00 1.809E-04

     total cpu time spent up to now is    27753.6 secs

     total energy              =   -2125.70591403 Ry
     estimated scf accuracy    <      13.08124180 Ry

     total magnetization       =    14.02 Bohr mag/cell
     absolute magnetization    =    14.22 Bohr mag/cell

     iteration #  5     ecut=   100.00 Ry     beta= 0.40
     Davidson diagonalization with overlap
     ethr =  1.25E-03,  avg # of iterations =  1.0

     negative rho (up, down):  0.000E+00 2.250E-04

     total cpu time spent up to now is    33012.8 secs

     total energy              =   -2126.12500875 Ry
     estimated scf accuracy    <       1.48936411 Ry

     total magnetization       =    19.00 Bohr mag/cell
     absolute magnetization    =    19.00 Bohr mag/cell

     iteration #  6     ecut=   100.00 Ry     beta= 0.40
     Davidson diagonalization with overlap
     ethr =  7.88E-04,  avg # of iterations =  1.1

     negative rho (up, down):  0.000E+00 2.668E-04

     total cpu time spent up to now is    38299.5 secs

     total energy              =   -2126.12088051 Ry
     estimated scf accuracy    <       1.21848868 Ry

     total magnetization       =    19.00 Bohr mag/cell
     absolute magnetization    =    19.00 Bohr mag/cell

     iteration #  7     ecut=   100.00 Ry     beta= 0.40
     Davidson diagonalization with overlap
     ethr =  6.45E-04,  avg # of iterations =  1.0

     negative rho (up, down):  0.000E+00 4.609E-04

     total cpu time spent up to now is    43588.7 secs

     total energy              =   -2126.07772094 Ry
     estimated scf accuracy    <       1.04967982 Ry

     total magnetization       =    19.00 Bohr mag/cell
     absolute magnetization    =    19.00 Bohr mag/cell

     iteration #  8     ecut=   100.00 Ry     beta= 0.40
     Davidson diagonalization with overlap
     ethr =  5.55E-04,  avg # of iterations =  1.0

     negative rho (up, down):  0.000E+00 7.179E-04

     total cpu time spent up to now is    48863.9 secs

     total energy              =   -2126.06483747 Ry
     estimated scf accuracy    <       0.54959844 Ry

     total magnetization       =    19.00 Bohr mag/cell
     absolute magnetization    =    19.01 Bohr mag/cell

     iteration #  9     ecut=   100.00 Ry     beta= 0.40
     Davidson diagonalization with overlap
     ethr =  2.91E-04,  avg # of iterations =  2.4

     negative rho (up, down):  0.000E+00 8.023E-04

     total cpu time spent up to now is    54460.8 secs

     total energy              =   -2126.09366342 Ry
     estimated scf accuracy    <       0.26892916 Ry

     total magnetization       =    19.00 Bohr mag/cell
     absolute magnetization    =    19.01 Bohr mag/cell

     iteration # 10     ecut=   100.00 Ry     beta= 0.40
     Davidson diagonalization with overlap
     c_bands:  1 eigenvalues not converged
     c_bands:  1 eigenvalues not converged
     ethr =  1.42E-04,  avg # of iterations =  6.2

     negative rho (up, down):  0.000E+00 8.594E-04

     total cpu time spent up to now is    60517.5 secs

     total energy              =   -2126.09915640 Ry
     estimated scf accuracy    <       0.18955428 Ry

     total magnetization       =    19.00 Bohr mag/cell
     absolute magnetization    =    19.02 Bohr mag/cell

     iteration # 11     ecut=   100.00 Ry     beta= 0.40
     Davidson diagonalization with overlap
     c_bands:  1 eigenvalues not converged
     c_bands:  1 eigenvalues not converged
     c_bands:  1 eigenvalues not converged
     ethr =  1.00E-04,  avg # of iterations =  3.7

     negative rho (up, down):  0.000E+00 8.572E-04

     total cpu time spent up to now is    66198.7 secs

     total energy              =   -2126.10250871 Ry
     estimated scf accuracy    <       0.08135387 Ry

     total magnetization       =    19.00 Bohr mag/cell
     absolute magnetization    =    19.03 Bohr mag/cell

     iteration # 12     ecut=   100.00 Ry     beta= 0.40
     Davidson diagonalization with overlap
     c_bands:  1 eigenvalues not converged
     c_bands:  1 eigenvalues not converged
     c_bands:  1 eigenvalues not converged
     c_bands:  1 eigenvalues not converged
     c_bands:  1 eigenvalues not converged
     c_bands:  1 eigenvalues not converged
     c_bands:  1 eigenvalues not converged
     c_bands:  1 eigenvalues not converged
     c_bands:  1 eigenvalues not converged
     c_bands:  1 eigenvalues not converged
     c_bands:  1 eigenvalues not converged
     c_bands:  1 eigenvalues not converged
     c_bands:  1 eigenvalues not converged
     c_bands:  1 eigenvalues not converged
     c_bands:  3 eigenvalues not converged
     c_bands:  1 eigenvalues not converged
     c_bands:  1 eigenvalues not converged
     c_bands:  1 eigenvalues not converged
     c_bands:  1 eigenvalues not converged
     c_bands:  1 eigenvalues not converged
     c_bands:  2 eigenvalues not converged
     c_bands:  1 eigenvalues not converged
     c_bands:  2 eigenvalues not converged
     c_bands:  1 eigenvalues not converged
     c_bands:  1 eigenvalues not converged
     ethr =  4.30E-05,  avg # of iterations =  9.7

     negative rho (up, down):  0.000E+00 9.510E-04

     total cpu time spent up to now is    72831.3 secs

     total energy              =   -2126.10535830 Ry
     estimated scf accuracy    <       0.01034439 Ry

     total magnetization       =    19.00 Bohr mag/cell
     absolute magnetization    =    19.03 Bohr mag/cell

     iteration # 13     ecut=   100.00 Ry     beta= 0.40
     Davidson diagonalization with overlap
     c_bands:  1 eigenvalues not converged
     c_bands:  1 eigenvalues not converged
     c_bands:  1 eigenvalues not converged
     c_bands:  1 eigenvalues not converged
     c_bands:  2 eigenvalues not converged
     c_bands:  1 eigenvalues not converged
     c_bands:  1 eigenvalues not converged
     c_bands:  1 eigenvalues not converged
     c_bands:  1 eigenvalues not converged
     c_bands:  1 eigenvalues not converged
     c_bands:  1 eigenvalues not converged
     c_bands:  1 eigenvalues not converged
     c_bands:  1 eigenvalues not converged
     c_bands:  1 eigenvalues not converged
     c_bands:  1 eigenvalues not converged
     c_bands:  1 eigenvalues not converged
     c_bands:  1 eigenvalues not converged
     c_bands:  1 eigenvalues not converged
     c_bands:  1 eigenvalues not converged
     c_bands:  1 eigenvalues not converged
     c_bands:  1 eigenvalues not converged
     c_bands:  1 eigenvalues not converged
     c_bands:  1 eigenvalues not converged
     c_bands:  1 eigenvalues not converged
     c_bands:  1 eigenvalues not converged
     c_bands:  1 eigenvalues not converged
     c_bands:  1 eigenvalues not converged
     ethr =  5.47E-06,  avg # of iterations = 13.2

     negative rho (up, down):  0.000E+00 9.549E-04

     total cpu time spent up to now is    80560.6 secs

     total energy              =   -2126.10673096 Ry
     estimated scf accuracy    <       0.01753734 Ry

     total magnetization       =    19.00 Bohr mag/cell
     absolute magnetization    =    19.04 Bohr mag/cell

     iteration # 14     ecut=   100.00 Ry     beta= 0.40
     Davidson diagonalization with overlap
     ethr =  5.47E-06,  avg # of iterations =  1.1

     negative rho (up, down):  0.000E+00 9.532E-04

     total cpu time spent up to now is    85834.4 secs

     total energy              =   -2126.10714010 Ry
     estimated scf accuracy    <       0.01018473 Ry

     total magnetization       =    19.00 Bohr mag/cell
     absolute magnetization    =    19.05 Bohr mag/cell

     iteration # 15     ecut=   100.00 Ry     beta= 0.40
     Davidson diagonalization with overlap
     ethr =  5.39E-06,  avg # of iterations =  1.0

     negative rho (up, down):  0.000E+00 9.539E-04

     total cpu time spent up to now is    91115.3 secs

     total energy              =   -2126.10713752 Ry
     estimated scf accuracy    <       0.00616609 Ry

     total magnetization       =    19.00 Bohr mag/cell
     absolute magnetization    =    19.05 Bohr mag/cell

     iteration # 16     ecut=   100.00 Ry     beta= 0.40
     Davidson diagonalization with overlap
     ethr =  3.26E-06,  avg # of iterations =  1.0

     negative rho (up, down):  0.000E+00 9.497E-04

     total cpu time spent up to now is    96372.9 secs

     total energy              =   -2126.10722110 Ry
     estimated scf accuracy    <       0.00142508 Ry

     total magnetization       =    19.00 Bohr mag/cell
     absolute magnetization    =    19.05 Bohr mag/cell

     iteration # 17     ecut=   100.00 Ry     beta= 0.40
     Davidson diagonalization with overlap
     ethr =  7.54E-07,  avg # of iterations =  1.9

     negative rho (up, down):  0.000E+00 9.488E-04

     total cpu time spent up to now is   101826.3 secs

     total energy              =   -2126.10731042 Ry
     estimated scf accuracy    <       0.00028074 Ry

     total magnetization       =    19.00 Bohr mag/cell
     absolute magnetization    =    19.05 Bohr mag/cell

     iteration # 18     ecut=   100.00 Ry     beta= 0.40
     Davidson diagonalization with overlap
     ethr =  1.49E-07,  avg # of iterations =  4.7

     negative rho (up, down):  0.000E+00 9.418E-04

     total cpu time spent up to now is   109439.0 secs

     total energy              =   -2126.10740717 Ry
     estimated scf accuracy    <       0.00009270 Ry

     total magnetization       =    19.00 Bohr mag/cell
     absolute magnetization    =    19.05 Bohr mag/cell

     iteration # 19     ecut=   100.00 Ry     beta= 0.40
     Davidson diagonalization with overlap
     ethr =  4.90E-08,  avg # of iterations =  1.6

     negative rho (up, down):  0.000E+00 9.394E-04

     total cpu time spent up to now is   114825.8 secs

     total energy              =   -2126.10741874 Ry
     estimated scf accuracy    <       0.00001226 Ry

     total magnetization       =    19.00 Bohr mag/cell
     absolute magnetization    =    19.05 Bohr mag/cell

     iteration # 20     ecut=   100.00 Ry     beta= 0.40
     Davidson diagonalization with overlap
     ethr =  6.49E-09,  avg # of iterations =  2.6

     negative rho (up, down):  0.000E+00 9.388E-04

     total cpu time spent up to now is   120703.4 secs

     total energy              =   -2126.10742066 Ry
     estimated scf accuracy    <       0.00003490 Ry

     total magnetization       =    19.00 Bohr mag/cell
     absolute magnetization    =    19.05 Bohr mag/cell

     iteration # 21     ecut=   100.00 Ry     beta= 0.40
     Davidson diagonalization with overlap
     ethr =  6.49E-09,  avg # of iterations =  1.0

     negative rho (up, down):  0.000E+00 9.374E-04

     total cpu time spent up to now is   125981.8 secs

     total energy              =   -2126.10742309 Ry
     estimated scf accuracy    <       0.00000440 Ry

     total magnetization       =    19.00 Bohr mag/cell
     absolute magnetization    =    19.05 Bohr mag/cell

     iteration # 22     ecut=   100.00 Ry     beta= 0.40
     Davidson diagonalization with overlap
     ethr =  2.33E-09,  avg # of iterations =  2.2

     negative rho (up, down):  0.000E+00 9.379E-04

     total cpu time spent up to now is   131684.4 secs

     total energy              =   -2126.10742433 Ry
     estimated scf accuracy    <       0.00000281 Ry

     total magnetization       =    19.00 Bohr mag/cell
     absolute magnetization    =    19.05 Bohr mag/cell

     iteration # 23     ecut=   100.00 Ry     beta= 0.40
     Davidson diagonalization with overlap
     ethr =  1.49E-09,  avg # of iterations =  2.2

     negative rho (up, down):  0.000E+00 9.380E-04

     total cpu time spent up to now is   137311.3 secs

     total energy              =   -2126.10742475 Ry
     estimated scf accuracy    <       0.00000168 Ry

     total magnetization       =    19.00 Bohr mag/cell
     absolute magnetization    =    19.05 Bohr mag/cell

     iteration # 24     ecut=   100.00 Ry     beta= 0.40
     Davidson diagonalization with overlap
     ethr =  8.90E-10,  avg # of iterations =  1.1

     negative rho (up, down):  0.000E+00 9.383E-04

     total cpu time spent up to now is   142631.1 secs

     total energy              =   -2126.10742491 Ry
     estimated scf accuracy    <       0.00000088 Ry

     total magnetization       =    19.00 Bohr mag/cell
     absolute magnetization    =    19.05 Bohr mag/cell

     iteration # 25     ecut=   100.00 Ry     beta= 0.40
     Davidson diagonalization with overlap
     ethr =  4.66E-10,  avg # of iterations =  1.4

     negative rho (up, down):  0.000E+00 9.385E-04

     total cpu time spent up to now is   148016.9 secs

     total energy              =   -2126.10742500 Ry
     estimated scf accuracy    <       0.00000030 Ry

     total magnetization       =    19.00 Bohr mag/cell
     absolute magnetization    =    19.05 Bohr mag/cell

     iteration # 26     ecut=   100.00 Ry     beta= 0.40
     Davidson diagonalization with overlap
     ethr =  1.58E-10,  avg # of iterations =  2.4

     negative rho (up, down):  0.000E+00 9.388E-04

     total cpu time spent up to now is   153756.5 secs

     total energy              =   -2126.10742504 Ry
     estimated scf accuracy    <       0.00000032 Ry

     total magnetization       =    19.00 Bohr mag/cell
     absolute magnetization    =    19.05 Bohr mag/cell

     iteration # 27     ecut=   100.00 Ry     beta= 0.40
     Davidson diagonalization with overlap
     ethr =  1.58E-10,  avg # of iterations =  1.0

     negative rho (up, down):  0.000E+00 9.388E-04

     total cpu time spent up to now is   159026.6 secs

     total energy              =   -2126.10742505 Ry
     estimated scf accuracy    <       0.00000019 Ry

     total magnetization       =    19.00 Bohr mag/cell
     absolute magnetization    =    19.05 Bohr mag/cell

     iteration # 28     ecut=   100.00 Ry     beta= 0.40
     Davidson diagonalization with overlap
     ethr =  1.01E-10,  avg # of iterations =  1.1

     negative rho (up, down):  0.000E+00 9.388E-04

     total cpu time spent up to now is   164321.1 secs

     total energy              =   -2126.10742506 Ry
     estimated scf accuracy    <       0.00000002 Ry

     total magnetization       =    19.00 Bohr mag/cell
     absolute magnetization    =    19.05 Bohr mag/cell

     iteration # 29     ecut=   100.00 Ry     beta= 0.40
     Davidson diagonalization with overlap
     ethr =  1.11E-11,  avg # of iterations =  4.3

     negative rho (up, down):  0.000E+00 9.387E-04

     total cpu time spent up to now is   171332.6 secs

     total energy              =   -2126.10742507 Ry
     estimated scf accuracy    <       0.00000003 Ry

     total magnetization       =    19.00 Bohr mag/cell
     absolute magnetization    =    19.05 Bohr mag/cell

     iteration # 30     ecut=   100.00 Ry     beta= 0.40
     Davidson diagonalization with overlap
     ethr =  1.11E-11,  avg # of iterations =  2.0

     negative rho (up, down):  0.000E+00 9.387E-04

     total cpu time spent up to now is   176903.6 secs

     total energy              =   -2126.10742507 Ry
     estimated scf accuracy    <          7.8E-09 Ry

     total magnetization       =    19.00 Bohr mag/cell
     absolute magnetization    =    19.05 Bohr mag/cell

     iteration # 31     ecut=   100.00 Ry     beta= 0.40
     Davidson diagonalization with overlap
     ethr =  4.10E-12,  avg # of iterations =  2.0

     negative rho (up, down):  0.000E+00 9.387E-04

     total cpu time spent up to now is   182927.5 secs

     total energy              =   -2126.10742508 Ry
     estimated scf accuracy    <       0.00000002 Ry

     total magnetization       =    19.00 Bohr mag/cell
     absolute magnetization    =    19.05 Bohr mag/cell

     iteration # 32     ecut=   100.00 Ry     beta= 0.40
     Davidson diagonalization with overlap
     ethr =  4.10E-12,  avg # of iterations =  1.0

     negative rho (up, down):  0.000E+00 9.387E-04

     total cpu time spent up to now is   188171.7 secs

     total energy              =   -2126.10742508 Ry
     estimated scf accuracy    <          1.5E-09 Ry

     total magnetization       =    19.00 Bohr mag/cell
     absolute magnetization    =    19.05 Bohr mag/cell

     iteration # 33     ecut=   100.00 Ry     beta= 0.40
     Davidson diagonalization with overlap
     ethr =  7.77E-13,  avg # of iterations =  2.8

     negative rho (up, down):  0.000E+00 9.387E-04

     total cpu time spent up to now is   193956.7 secs

     total energy              =   -2126.10742508 Ry
     estimated scf accuracy    <          3.4E-10 Ry

     total magnetization       =    19.00 Bohr mag/cell
     absolute magnetization    =    19.05 Bohr mag/cell

     iteration # 34     ecut=   100.00 Ry     beta= 0.40
     Davidson diagonalization with overlap
     ethr =  1.77E-13,  avg # of iterations =  4.0

     negative rho (up, down):  0.000E+00 9.387E-04

     total cpu time spent up to now is   200931.8 secs

     total energy              =   -2126.10742508 Ry
     estimated scf accuracy    <          1.0E-09 Ry

     total magnetization       =    19.00 Bohr mag/cell
     absolute magnetization    =    19.05 Bohr mag/cell

     iteration # 35     ecut=   100.00 Ry     beta= 0.40
     Davidson diagonalization with overlap
     ethr =  1.77E-13,  avg # of iterations =  2.0

     negative rho (up, down):  0.000E+00 9.387E-04

     total cpu time spent up to now is   206380.5 secs

     total energy              =   -2126.10742508 Ry
     estimated scf accuracy    <          6.4E-10 Ry

     total magnetization       =    19.00 Bohr mag/cell
     absolute magnetization    =    19.05 Bohr mag/cell

     iteration # 36     ecut=   100.00 Ry     beta= 0.40
     Davidson diagonalization with overlap
     ethr =  1.77E-13,  avg # of iterations =  1.1

     negative rho (up, down):  0.000E+00 9.387E-04

     Magnetic moment per site:
     atom:    1    charge:    7.9863    magn:    0.0007    constr:    0.0000
     atom:    2    charge:   12.9504    magn:    3.6621    constr:    0.0000
     atom:    3    charge:   12.9467    magn:    3.6778    constr:    0.0000
     atom:    4    charge:   12.9504    magn:    3.6621    constr:    0.0000
     atom:    5    charge:   12.9467    magn:    3.6778    constr:    0.0000
     atom:    6    charge:    0.8821    magn:    0.0079    constr:    0.0000
     atom:    7    charge:    0.8812    magn:    0.0104    constr:    0.0000
     atom:    8    charge:    0.8821    magn:    0.0079    constr:    0.0000
     atom:    9    charge:    0.8812    magn:    0.0104    constr:    0.0000
     atom:   10    charge:    4.3388    magn:    0.0867    constr:    0.0000
     atom:   11    charge:    4.3350    magn:    0.1379    constr:    0.0000
     atom:   12    charge:    4.3388    magn:    0.0867    constr:    0.0000
     atom:   13    charge:    4.3351    magn:    0.1379    constr:    0.0000
     atom:   14    charge:    4.3301    magn:    0.1414    constr:    0.0000
     atom:   15    charge:    4.3276    magn:    0.0954    constr:    0.0000
     atom:   16    charge:    4.3301    magn:    0.1414    constr:    0.0000
     atom:   17    charge:    4.3276    magn:    0.0954    constr:    0.0000
     atom:   18    charge:    4.3115    magn:    0.1214    constr:    0.0000
     atom:   19    charge:    4.3079    magn:    0.1467    constr:    0.0000
     atom:   20    charge:    4.3124    magn:    0.1341    constr:    0.0000
     atom:   21    charge:    4.3095    magn:    0.1553    constr:    0.0000
     atom:   22    charge:    4.3115    magn:    0.1213    constr:    0.0000
     atom:   23    charge:    4.3079    magn:    0.1467    constr:    0.0000
     atom:   24    charge:    4.3124    magn:    0.1341    constr:    0.0000
     atom:   25    charge:    4.3095    magn:    0.1553    constr:    0.0000

     total cpu time spent up to now is   211652.5 secs

     End of self-consistent calculation

 ------ SPIN UP ------------


          k = 0.0000 0.0000 0.0000 ( 38251 PWs)   bands (ev):

   -85.8674 -85.8674 -85.8007 -85.8007 -51.9884 -51.9884 -51.9824 -51.9824
   -51.8346 -51.8346 -51.7391 -51.7390 -51.7028 -51.7028 -51.6842 -51.6842
   -45.2286 -17.2469 -17.2082 -17.1778 -16.3823 -16.1618 -16.1588 -16.0098
   -14.0856 -14.0513 -14.0060 -13.9604 -13.8630 -13.8481 -13.8132 -13.8003
   -13.7858 -13.7770 -13.6394 -13.6192  -4.5596  -4.1120  -4.0582  -3.7023
    -2.5797  -2.2750  -2.1988  -2.0634  -1.8452  -1.7398  -1.6882  -1.6152
    -1.4734  -1.3871  -1.1018  -0.8125  -0.7193  -0.6895  -0.2436  -0.1923
    -0.0874  -0.0209   0.1150   0.2366   0.2902   0.4061   0.4128   0.5240
     0.5703   0.7455   0.7792   0.8327   1.1337   1.1379   1.2344   1.2660
     1.4245   1.4367   1.6256   1.6451   1.6656   1.7142   1.8133   1.9590
     1.9960   2.1287   2.1372   2.2601   2.3305   2.3896   2.4660   2.5457
     2.6858   2.7060   2.7950   2.8181   2.8945   3.0909   3.1580   3.3143
     3.3668   3.4280   3.4643   3.5623   3.6748   3.7580   4.0580   4.1418
     8.1437  10.1256  10.6915  10.9828  11.1953  12.0356  12.0379  12.2503
    12.5464  12.6502

     occupation numbers 
     1.0000   1.0000   1.0000   1.0000   1.0000   1.0000   1.0000   1.0000
     1.0000   1.0000   1.0000   1.0000   1.0000   1.0000   1.0000   1.0000
     1.0000   1.0000   1.0000   1.0000   1.0000   1.0000   1.0000   1.0000
     1.0000   1.0000   1.0000   1.0000   1.0000   1.0000   1.0000   1.0000
     1.0000   1.0000   1.0000   1.0000   1.0000   1.0000   1.0000   1.0000
     1.0000   1.0000   1.0000   1.0000   1.0000   1.0000   1.0000   1.0000
     1.0000   1.0000   1.0000   1.0000   1.0000   1.0000   1.0000   1.0000
     1.0000   1.0000   1.0000   1.0000   1.0000   1.0000   1.0000   1.0000
     1.0000   1.0000   1.0000   1.0000   1.0000   1.0000   1.0000   1.0000
     1.0000   1.0000   1.0000   1.0000   1.0000   1.0000   1.0000   1.0000
     1.0000   1.0000   1.0000   1.0000   1.0000   1.0000   1.0000   1.0000
     1.0000   1.0000   1.0000   1.0000   1.0000   1.0000   1.0000   1.0000
     1.0000   1.0000   1.0000   1.0000   1.0000   1.0000   1.0000   1.0000
     0.0000   0.0000   0.0000   0.0000   0.0000   0.0000   0.0000   0.0000
     0.0000   0.0000

          k = 0.0000 0.0000 0.2337 ( 38277 PWs)   bands (ev):

   -85.8674 -85.8674 -85.8007 -85.8007 -51.9884 -51.9884 -51.9824 -51.9824
   -51.8346 -51.8346 -51.7391 -51.7390 -51.7028 -51.7028 -51.6842 -51.6842
   -45.2286 -17.2464 -17.2081 -17.1797 -16.3658 -16.1609 -16.1485 -16.0102
   -14.0926 -14.0631 -14.0152 -13.9661 -13.8602 -13.8577 -13.8171 -13.7950
   -13.7895 -13.7726 -13.6432 -13.6243  -4.5380  -4.1091  -4.0547  -3.7124
    -2.5356  -2.2488  -2.1973  -2.0480  -1.8405  -1.7652  -1.6734  -1.5699
    -1.4622  -1.3551  -1.1439  -0.8028  -0.7470  -0.6715  -0.2307  -0.1780
    -0.0876   0.0166   0.1065   0.2416   0.2827   0.3793   0.4012   0.5368
     0.5728   0.7418   0.7717   0.8280   1.0850   1.0908   1.1886   1.2381
     1.4164   1.5077   1.5574   1.6188   1.6431   1.6906   1.8280   1.9630
     2.0490   2.1279   2.1584   2.2240   2.3525   2.4144   2.4418   2.4997
     2.6510   2.7145   2.8105   2.8238   2.8476   3.1462   3.1613   3.3156
     3.3779   3.4528   3.4795   3.5588   3.6670   3.7628   4.0342   4.1207
     8.2917  10.2048  10.7296  10.9843  11.2438  11.8895  12.1210  12.2174
    12.4437  12.6529

     occupation numbers 
     1.0000   1.0000   1.0000   1.0000   1.0000   1.0000   1.0000   1.0000
     1.0000   1.0000   1.0000   1.0000   1.0000   1.0000   1.0000   1.0000
     1.0000   1.0000   1.0000   1.0000   1.0000   1.0000   1.0000   1.0000
     1.0000   1.0000   1.0000   1.0000   1.0000   1.0000   1.0000   1.0000
     1.0000   1.0000   1.0000   1.0000   1.0000   1.0000   1.0000   1.0000
     1.0000   1.0000   1.0000   1.0000   1.0000   1.0000   1.0000   1.0000
     1.0000   1.0000   1.0000   1.0000   1.0000   1.0000   1.0000   1.0000
     1.0000   1.0000   1.0000   1.0000   1.0000   1.0000   1.0000   1.0000
     1.0000   1.0000   1.0000   1.0000   1.0000   1.0000   1.0000   1.0000
     1.0000   1.0000   1.0000   1.0000   1.0000   1.0000   1.0000   1.0000
     1.0000   1.0000   1.0000   1.0000   1.0000   1.0000   1.0000   1.0000
     1.0000   1.0000   1.0000   1.0000   1.0000   1.0000   1.0000   1.0000
     1.0000   1.0000   1.0000   1.0000   1.0000   1.0000   1.0000   1.0000
     0.0000   0.0000   0.0000   0.0000   0.0000   0.0000   0.0000   0.0000
     0.0000   0.0000

          k = 0.0000 0.0000 0.4675 ( 38350 PWs)   bands (ev):

   -85.8674 -85.8674 -85.8007 -85.8007 -51.9884 -51.9884 -51.9824 -51.9824
   -51.8346 -51.8346 -51.7391 -51.7390 -51.7028 -51.7028 -51.6843 -51.6842
   -45.2286 -17.2467 -17.2076 -17.1828 -16.3214 -16.1546 -16.1267 -16.0127
   -14.1119 -14.0918 -14.0386 -13.9869 -13.8771 -13.8496 -13.8290 -13.8012
   -13.7755 -13.7623 -13.6546 -13.6388  -4.4758  -4.1065  -4.0443  -3.7502
    -2.4143  -2.1861  -2.1819  -2.0277  -1.8246  -1.7770  -1.6700  -1.4788
    -1.3872  -1.2764  -1.2524  -0.8862  -0.7022  -0.6153  -0.1890  -0.1464
    -0.0657   0.0764   0.1073   0.2489   0.2589   0.3362   0.3511   0.5469
     0.5927   0.7100   0.7784   0.8035   0.9437   1.0222   1.1324   1.1898
     1.2770   1.4053   1.5408   1.5774   1.6594   1.6890   1.8808   1.9325
     2.1001   2.1208   2.1364   2.2360   2.2506   2.3612   2.4194   2.5194
     2.5866   2.7465   2.8443   2.8608   2.8977   3.1589   3.2155   3.3246
     3.4182   3.5102   3.5195   3.5459   3.6552   3.7738   3.9614   4.0572
     8.6873  10.4205  10.7896  11.0187  11.3811  11.7795  11.9637  12.1603
    12.2887  12.5111

     occupation numbers 
     1.0000   1.0000   1.0000   1.0000   1.0000   1.0000   1.0000   1.0000
     1.0000   1.0000   1.0000   1.0000   1.0000   1.0000   1.0000   1.0000
     1.0000   1.0000   1.0000   1.0000   1.0000   1.0000   1.0000   1.0000
     1.0000   1.0000   1.0000   1.0000   1.0000   1.0000   1.0000   1.0000
     1.0000   1.0000   1.0000   1.0000   1.0000   1.0000   1.0000   1.0000
     1.0000   1.0000   1.0000   1.0000   1.0000   1.0000   1.0000   1.0000
     1.0000   1.0000   1.0000   1.0000   1.0000   1.0000   1.0000   1.0000
     1.0000   1.0000   1.0000   1.0000   1.0000   1.0000   1.0000   1.0000
     1.0000   1.0000   1.0000   1.0000   1.0000   1.0000   1.0000   1.0000
     1.0000   1.0000   1.0000   1.0000   1.0000   1.0000   1.0000   1.0000
     1.0000   1.0000   1.0000   1.0000   1.0000   1.0000   1.0000   1.0000
     1.0000   1.0000   1.0000   1.0000   1.0000   1.0000   1.0000   1.0000
     1.0000   1.0000   1.0000   1.0000   1.0000   1.0000   1.0000   1.0000
     0.0000   0.0000   0.0000   0.0000   0.0000   0.0000   0.0000   0.0000
     0.0000   0.0000

          k = 0.0000 0.0000 0.7012 ( 38330 PWs)   bands (ev):

   -85.8674 -85.8674 -85.8007 -85.8007 -51.9884 -51.9884 -51.9824 -51.9824
   -51.8346 -51.8346 -51.7391 -51.7390 -51.7028 -51.7028 -51.6843 -51.6842
   -45.2286 -17.2499 -17.2068 -17.1832 -16.2626 -16.1523 -16.1003 -16.0195
   -14.1362 -14.1231 -14.0646 -14.0213 -13.8886 -13.8433 -13.8373 -13.8094
   -13.7541 -13.7456 -13.6723 -13.6601  -4.3814  -4.1220  -4.0227  -3.8201
    -2.2719  -2.1460  -2.1141  -2.0235  -1.8010  -1.7492  -1.6622  -1.4437
    -1.3734  -1.2184  -1.1756  -1.0305  -0.5806  -0.5037  -0.1246  -0.1093
    -0.0350   0.0484   0.1497   0.2033   0.2437   0.3012   0.3262   0.5571
     0.5854   0.6568   0.7324   0.8052   0.8265   0.9099   1.0254   1.0806
     1.1958   1.2935   1.4709   1.5184   1.6494   1.8373   1.8541   1.9930
     2.0270   2.0548   2.0677   2.1374   2.2526   2.2956   2.3440   2.4709
     2.6252   2.7741   2.9172   3.0170   3.0838   3.1686   3.2178   3.3408
     3.4793   3.5241   3.5506   3.5752   3.6716   3.7759   3.8423   3.9544
     9.2290  10.6875  10.7455  11.1303  11.5543  11.6551  11.8275  11.9726
    12.1906  12.2624

     occupation numbers 
     1.0000   1.0000   1.0000   1.0000   1.0000   1.0000   1.0000   1.0000
     1.0000   1.0000   1.0000   1.0000   1.0000   1.0000   1.0000   1.0000
     1.0000   1.0000   1.0000   1.0000   1.0000   1.0000   1.0000   1.0000
     1.0000   1.0000   1.0000   1.0000   1.0000   1.0000   1.0000   1.0000
     1.0000   1.0000   1.0000   1.0000   1.0000   1.0000   1.0000   1.0000
     1.0000   1.0000   1.0000   1.0000   1.0000   1.0000   1.0000   1.0000
     1.0000   1.0000   1.0000   1.0000   1.0000   1.0000   1.0000   1.0000
     1.0000   1.0000   1.0000   1.0000   1.0000   1.0000   1.0000   1.0000
     1.0000   1.0000   1.0000   1.0000   1.0000   1.0000   1.0000   1.0000
     1.0000   1.0000   1.0000   1.0000   1.0000   1.0000   1.0000   1.0000
     1.0000   1.0000   1.0000   1.0000   1.0000   1.0000   1.0000   1.0000
     1.0000   1.0000   1.0000   1.0000   1.0000   1.0000   1.0000   1.0000
     1.0000   1.0000   1.0000   1.0000   1.0000   1.0000   1.0000   1.0000
     0.0000   0.0000   0.0000   0.0000   0.0000   0.0000   0.0000   0.0000
     0.0000   0.0000

          k = 0.0000 0.0000 0.9349 ( 38332 PWs)   bands (ev):

   -85.8674 -85.8674 -85.8007 -85.8007 -51.9884 -51.9884 -51.9824 -51.9824
   -51.8346 -51.8346 -51.7391 -51.7390 -51.7028 -51.7028 -51.6843 -51.6842
   -45.2286 -17.2532 -17.2062 -17.1818 -16.2069 -16.1663 -16.0789 -16.0290
   -14.1526 -14.1434 -14.0802 -14.0499 -13.8927 -13.8503 -13.8289 -13.8165
   -13.7313 -13.7268 -13.6933 -13.6813  -4.2725  -4.1772  -3.9807  -3.9016
    -2.1882  -2.1373  -2.0516  -2.0066  -1.7659  -1.6848  -1.6673  -1.5564
    -1.3146  -1.1888  -1.1021  -1.0795  -0.3944  -0.3180  -0.1662  -0.0897
    -0.0414  -0.0187   0.1068   0.1437   0.2168   0.3091   0.4119   0.4970
     0.5684   0.6078   0.6587   0.7359   0.8085   0.8514   0.8849   1.0470
     1.2372   1.3160   1.3651   1.4480   1.6761   1.8232   1.9005   1.9182
     1.9753   2.0053   2.0971   2.1415   2.1647   2.2420   2.3233   2.4621
     2.6330   2.7852   2.9818   3.1362   3.1592   3.2356   3.3408   3.3656
     3.4404   3.5527   3.5734   3.6055   3.6728   3.7271   3.7799   3.8383
     9.8171  10.3579  11.0675  11.2839  11.4209  11.5300  11.8469  11.9342
    12.1299  12.2040

     occupation numbers 
     1.0000   1.0000   1.0000   1.0000   1.0000   1.0000   1.0000   1.0000
     1.0000   1.0000   1.0000   1.0000   1.0000   1.0000   1.0000   1.0000
     1.0000   1.0000   1.0000   1.0000   1.0000   1.0000   1.0000   1.0000
     1.0000   1.0000   1.0000   1.0000   1.0000   1.0000   1.0000   1.0000
     1.0000   1.0000   1.0000   1.0000   1.0000   1.0000   1.0000   1.0000
     1.0000   1.0000   1.0000   1.0000   1.0000   1.0000   1.0000   1.0000
     1.0000   1.0000   1.0000   1.0000   1.0000   1.0000   1.0000   1.0000
     1.0000   1.0000   1.0000   1.0000   1.0000   1.0000   1.0000   1.0000
     1.0000   1.0000   1.0000   1.0000   1.0000   1.0000   1.0000   1.0000
     1.0000   1.0000   1.0000   1.0000   1.0000   1.0000   1.0000   1.0000
     1.0000   1.0000   1.0000   1.0000   1.0000   1.0000   1.0000   1.0000
     1.0000   1.0000   1.0000   1.0000   1.0000   1.0000   1.0000   1.0000
     1.0000   1.0000   1.0000   1.0000   1.0000   1.0000   1.0000   1.0000
     0.0000   0.0000   0.0000   0.0000   0.0000   0.0000   0.0000   0.0000
     0.0000   0.0000

          k = 0.0000 0.2391 0.0000 ( 38300 PWs)   bands (ev):

   -85.8674 -85.8674 -85.8007 -85.8007 -51.9884 -51.9884 -51.9824 -51.9824
   -51.8346 -51.8346 -51.7391 -51.7390 -51.7028 -51.7028 -51.6842 -51.6842
   -45.2286 -17.2473 -17.2082 -17.1778 -16.3650 -16.1653 -16.1507 -16.0283
   -14.0882 -14.0493 -14.0006 -13.9660 -13.9038 -13.8550 -13.8167 -13.7982
   -13.7868 -13.7324 -13.6332 -13.6277  -4.5354  -4.1276  -4.0401  -3.7117
    -2.5543  -2.2817  -2.1883  -2.0681  -1.8273  -1.7427  -1.6605  -1.5921
    -1.4536  -1.3775  -1.0829  -0.8087  -0.7590  -0.6537  -0.2025  -0.1540
    -0.0771  -0.0515   0.0283   0.1284   0.2549   0.3889   0.4884   0.5544
     0.6729   0.7438   0.7745   0.8226   1.0191   1.0249   1.1337   1.2234
     1.3952   1.5628   1.6259   1.6636   1.6981   1.7652   1.7950   1.8799
     2.0062   2.1216   2.1355   2.1725   2.2992   2.4643   2.5067   2.6052
     2.6559   2.6790   2.7275   2.8636   2.9606   3.0904   3.1474   3.3212
     3.3457   3.3937   3.4591   3.5825   3.6047   3.8021   4.0860   4.1330
     8.2982  10.2127  10.7655  10.8711  11.2796  11.9855  12.1090  12.3288
    12.4608  12.6522

     occupation numbers 
     1.0000   1.0000   1.0000   1.0000   1.0000   1.0000   1.0000   1.0000
     1.0000   1.0000   1.0000   1.0000   1.0000   1.0000   1.0000   1.0000
     1.0000   1.0000   1.0000   1.0000   1.0000   1.0000   1.0000   1.0000
     1.0000   1.0000   1.0000   1.0000   1.0000   1.0000   1.0000   1.0000
     1.0000   1.0000   1.0000   1.0000   1.0000   1.0000   1.0000   1.0000
     1.0000   1.0000   1.0000   1.0000   1.0000   1.0000   1.0000   1.0000
     1.0000   1.0000   1.0000   1.0000   1.0000   1.0000   1.0000   1.0000
     1.0000   1.0000   1.0000   1.0000   1.0000   1.0000   1.0000   1.0000
     1.0000   1.0000   1.0000   1.0000   1.0000   1.0000   1.0000   1.0000
     1.0000   1.0000   1.0000   1.0000   1.0000   1.0000   1.0000   1.0000
     1.0000   1.0000   1.0000   1.0000   1.0000   1.0000   1.0000   1.0000
     1.0000   1.0000   1.0000   1.0000   1.0000   1.0000   1.0000   1.0000
     1.0000   1.0000   1.0000   1.0000   1.0000   1.0000   1.0000   1.0000
     0.0000   0.0000   0.0000   0.0000   0.0000   0.0000   0.0000   0.0000
     0.0000   0.0000

          k = 0.0000 0.2391 0.2337 ( 38294 PWs)   bands (ev):

   -85.8674 -85.8674 -85.8007 -85.8007 -51.9884 -51.9884 -51.9824 -51.9824
   -51.8346 -51.8346 -51.7391 -51.7390 -51.7028 -51.7028 -51.6842 -51.6842
   -45.2286 -17.2461 -17.2081 -17.1798 -16.3517 -16.1577 -16.1470 -16.0258
   -14.0955 -14.0602 -14.0080 -13.9720 -13.9102 -13.8550 -13.8256 -13.7932
   -13.7889 -13.7271 -13.6383 -13.6317  -4.5142  -4.1232  -4.0365  -3.7223
    -2.5114  -2.2559  -2.1826  -2.0558  -1.8231  -1.7560  -1.6472  -1.5563
    -1.4309  -1.3536  -1.1225  -0.8547  -0.7286  -0.6413  -0.1919  -0.1553
    -0.0764  -0.0194   0.0282   0.1317   0.2369   0.3843   0.4638   0.5695
     0.6392   0.7352   0.7842   0.8239   0.9744   0.9971   1.0959   1.2069
     1.5055   1.5450   1.5795   1.6449   1.6805   1.7255   1.7948   1.9181
     2.0279   2.0983   2.1279   2.1905   2.3050   2.4010   2.4800   2.5901
     2.6406   2.6725   2.7671   2.8346   2.9165   3.1442   3.1661   3.3234
     3.3345   3.4268   3.4841   3.5663   3.6097   3.8128   4.0680   4.1211
     8.4401  10.2946  10.7848  10.9199  11.2972  11.9044  12.1628  12.2180
    12.4500  12.6468

     occupation numbers 
     1.0000   1.0000   1.0000   1.0000   1.0000   1.0000   1.0000   1.0000
     1.0000   1.0000   1.0000   1.0000   1.0000   1.0000   1.0000   1.0000
     1.0000   1.0000   1.0000   1.0000   1.0000   1.0000   1.0000   1.0000
     1.0000   1.0000   1.0000   1.0000   1.0000   1.0000   1.0000   1.0000
     1.0000   1.0000   1.0000   1.0000   1.0000   1.0000   1.0000   1.0000
     1.0000   1.0000   1.0000   1.0000   1.0000   1.0000   1.0000   1.0000
     1.0000   1.0000   1.0000   1.0000   1.0000   1.0000   1.0000   1.0000
     1.0000   1.0000   1.0000   1.0000   1.0000   1.0000   1.0000   1.0000
     1.0000   1.0000   1.0000   1.0000   1.0000   1.0000   1.0000   1.0000
     1.0000   1.0000   1.0000   1.0000   1.0000   1.0000   1.0000   1.0000
     1.0000   1.0000   1.0000   1.0000   1.0000   1.0000   1.0000   1.0000
     1.0000   1.0000   1.0000   1.0000   1.0000   1.0000   1.0000   1.0000
     1.0000   1.0000   1.0000   1.0000   1.0000   1.0000   1.0000   1.0000
     0.0000   0.0000   0.0000   0.0000   0.0000   0.0000   0.0000   0.0000
     0.0000   0.0000

          k = 0.0000 0.2391 0.4675 ( 38323 PWs)   bands (ev):

   -85.8674 -85.8674 -85.8007 -85.8007 -51.9884 -51.9884 -51.9824 -51.9824
   -51.8346 -51.8346 -51.7391 -51.7390 -51.7028 -51.7028 -51.6843 -51.6842
   -45.2286 -17.2459 -17.2077 -17.1829 -16.3110 -16.1520 -16.1244 -16.0243
   -14.1151 -14.0913 -14.0314 -13.9924 -13.9098 -13.8633 -13.8380 -13.7979
   -13.7779 -13.7175 -13.6499 -13.6426  -4.4532  -4.1172  -4.0265  -3.7586
    -2.3945  -2.1911  -2.1640  -2.0352  -1.8079  -1.7639  -1.6392  -1.4524
    -1.3756  -1.2808  -1.2248  -0.9425  -0.6721  -0.6034  -0.1620  -0.1360
    -0.0628  -0.0531   0.0975   0.1528   0.2384   0.3563   0.4282   0.5706
     0.5903   0.7316   0.7808   0.8103   0.8770   0.9570   1.0417   1.1972
     1.3389   1.5096   1.5787   1.5953   1.6367   1.6923   1.8821   1.9186
     2.0175   2.0859   2.1407   2.1875   2.2464   2.3348   2.4233   2.5147
     2.6148   2.6899   2.8167   2.8896   2.9188   3.1697   3.2015   3.3413
     3.3743   3.4666   3.5106   3.5573   3.6310   3.8236   4.0216   4.0758
     8.8225  10.5122  10.8515  11.0028  11.3994  11.8115  12.0156  12.1525
    12.3056  12.5355

     occupation numbers 
     1.0000   1.0000   1.0000   1.0000   1.0000   1.0000   1.0000   1.0000
     1.0000   1.0000   1.0000   1.0000   1.0000   1.0000   1.0000   1.0000
     1.0000   1.0000   1.0000   1.0000   1.0000   1.0000   1.0000   1.0000
     1.0000   1.0000   1.0000   1.0000   1.0000   1.0000   1.0000   1.0000
     1.0000   1.0000   1.0000   1.0000   1.0000   1.0000   1.0000   1.0000
     1.0000   1.0000   1.0000   1.0000   1.0000   1.0000   1.0000   1.0000
     1.0000   1.0000   1.0000   1.0000   1.0000   1.0000   1.0000   1.0000
     1.0000   1.0000   1.0000   1.0000   1.0000   1.0000   1.0000   1.0000
     1.0000   1.0000   1.0000   1.0000   1.0000   1.0000   1.0000   1.0000
     1.0000   1.0000   1.0000   1.0000   1.0000   1.0000   1.0000   1.0000
     1.0000   1.0000   1.0000   1.0000   1.0000   1.0000   1.0000   1.0000
     1.0000   1.0000   1.0000   1.0000   1.0000   1.0000   1.0000   1.0000
     1.0000   1.0000   1.0000   1.0000   1.0000   1.0000   1.0000   1.0000
     0.0000   0.0000   0.0000   0.0000   0.0000   0.0000   0.0000   0.0000
     0.0000   0.0000

          k = 0.0000 0.2391 0.7012 ( 38349 PWs)   bands (ev):

   -85.8674 -85.8674 -85.8007 -85.8007 -51.9884 -51.9884 -51.9824 -51.9824
   -51.8346 -51.8346 -51.7391 -51.7390 -51.7028 -51.7028 -51.6843 -51.6842
   -45.2286 -17.2488 -17.2068 -17.1833 -16.2551 -16.1511 -16.0962 -16.0276
   -14.1402 -14.1252 -14.0590 -14.0265 -13.9087 -13.8661 -13.8448 -13.8084
   -13.7585 -13.7041 -13.6658 -13.6596  -4.3613  -4.1275  -4.0067  -3.8247
    -2.2556  -2.1344  -2.1115  -2.0266  -1.7855  -1.7359  -1.6281  -1.4276
    -1.3385  -1.2137  -1.1791  -1.0637  -0.5706  -0.5256  -0.1584  -0.1153
    -0.0939  -0.0301   0.1163   0.2491   0.2748   0.3181   0.3702   0.5171
     0.6013   0.6911   0.7640   0.7886   0.7963   0.9234   0.9629   1.0884
     1.1859   1.3649   1.4689   1.5608   1.6441   1.8068   1.8804   1.9127
     1.9734   2.0559   2.0766   2.1800   2.1881   2.2743   2.3766   2.4562
     2.6086   2.7042   2.8904   3.0004   3.0688   3.1789   3.1965   3.3569
     3.4192   3.4752   3.5290   3.5732   3.6937   3.8264   3.9497   4.0023
     9.3513  10.7893  10.8328  11.1251  11.5757  11.7158  11.8663  12.0023
    12.1811  12.2330

     occupation numbers 
     1.0000   1.0000   1.0000   1.0000   1.0000   1.0000   1.0000   1.0000
     1.0000   1.0000   1.0000   1.0000   1.0000   1.0000   1.0000   1.0000
     1.0000   1.0000   1.0000   1.0000   1.0000   1.0000   1.0000   1.0000
     1.0000   1.0000   1.0000   1.0000   1.0000   1.0000   1.0000   1.0000
     1.0000   1.0000   1.0000   1.0000   1.0000   1.0000   1.0000   1.0000
     1.0000   1.0000   1.0000   1.0000   1.0000   1.0000   1.0000   1.0000
     1.0000   1.0000   1.0000   1.0000   1.0000   1.0000   1.0000   1.0000
     1.0000   1.0000   1.0000   1.0000   1.0000   1.0000   1.0000   1.0000
     1.0000   1.0000   1.0000   1.0000   1.0000   1.0000   1.0000   1.0000
     1.0000   1.0000   1.0000   1.0000   1.0000   1.0000   1.0000   1.0000
     1.0000   1.0000   1.0000   1.0000   1.0000   1.0000   1.0000   1.0000
     1.0000   1.0000   1.0000   1.0000   1.0000   1.0000   1.0000   1.0000
     1.0000   1.0000   1.0000   1.0000   1.0000   1.0000   1.0000   1.0000
     0.0000   0.0000   0.0000   0.0000   0.0000   0.0000   0.0000   0.0000
     0.0000   0.0000

          k = 0.0000 0.2391 0.9349 ( 38302 PWs)   bands (ev):

   -85.8674 -85.8674 -85.8007 -85.8007 -51.9884 -51.9884 -51.9824 -51.9824
   -51.8346 -51.8346 -51.7391 -51.7390 -51.7028 -51.7028 -51.6843 -51.6842
   -45.2286 -17.2524 -17.2062 -17.1818 -16.1999 -16.1629 -16.0772 -16.0355
   -14.1573 -14.1461 -14.0789 -14.0528 -13.9095 -13.8675 -13.8392 -13.8194
   -13.7390 -13.6884 -13.6867 -13.6742  -4.2571  -4.1737  -3.9713  -3.9004
    -2.1688  -2.1291  -2.0493  -2.0080  -1.7499  -1.6976  -1.6092  -1.5321
    -1.2903  -1.2086  -1.0993  -1.0798  -0.4316  -0.3869  -0.2666  -0.2302
    -0.0107   0.0523   0.1282   0.2316   0.2532   0.3473   0.4312   0.4651
     0.5808   0.6200   0.7045   0.7374   0.7964   0.8608   0.8681   0.9778
     1.2137   1.3539   1.3644   1.4623   1.6842   1.8197   1.8587   1.8762
     1.9250   2.0256   2.0832   2.1190   2.1903   2.2626   2.3393   2.4411
     2.6012   2.7103   2.9518   3.1399   3.1689   3.1712   3.2542   3.3701
     3.3779   3.4548   3.5760   3.6069   3.7482   3.8191   3.8632   3.9381
     9.9308  10.4648  11.1609  11.3237  11.4900  11.5597  11.8817  11.9762
    12.0588  12.1590

     occupation numbers 
     1.0000   1.0000   1.0000   1.0000   1.0000   1.0000   1.0000   1.0000
     1.0000   1.0000   1.0000   1.0000   1.0000   1.0000   1.0000   1.0000
     1.0000   1.0000   1.0000   1.0000   1.0000   1.0000   1.0000   1.0000
     1.0000   1.0000   1.0000   1.0000   1.0000   1.0000   1.0000   1.0000
     1.0000   1.0000   1.0000   1.0000   1.0000   1.0000   1.0000   1.0000
     1.0000   1.0000   1.0000   1.0000   1.0000   1.0000   1.0000   1.0000
     1.0000   1.0000   1.0000   1.0000   1.0000   1.0000   1.0000   1.0000
     1.0000   1.0000   1.0000   1.0000   1.0000   1.0000   1.0000   1.0000
     1.0000   1.0000   1.0000   1.0000   1.0000   1.0000   1.0000   1.0000
     1.0000   1.0000   1.0000   1.0000   1.0000   1.0000   1.0000   1.0000
[...]
     atom    8 type  4   force =    -0.00051466   -0.00055213   -0.00090371
     atom    9 type  4   force =     0.00287151   -0.00000582   -0.00061809
     atom   10 type  3   force =     0.00317673    0.00035108   -0.03027151
     atom   11 type  3   force =    -0.00593122    0.00038362   -0.02875447
     atom   12 type  3   force =    -0.00317631   -0.00034944    0.03030373
     atom   13 type  3   force =     0.00593202   -0.00038339    0.02873867
     atom   14 type  3   force =     0.02552345   -0.00020396   -0.01294352
     atom   15 type  3   force =    -0.02898230    0.00003303   -0.00949518
     atom   16 type  3   force =    -0.02552309    0.00020415    0.01294170
     atom   17 type  3   force =     0.02899378   -0.00003396    0.00950124
     atom   18 type  3   force =    -0.01303660   -0.02446989    0.01228935
     atom   19 type  3   force =     0.01156944    0.02614199    0.01381618
     atom   20 type  3   force =     0.01202033   -0.02375100   -0.01524555
     atom   21 type  3   force =    -0.01053652    0.02512032   -0.01382494
     atom   22 type  3   force =     0.01303118    0.02446677   -0.01228489
     atom   23 type  3   force =    -0.01157164   -0.02614791   -0.01381903
     atom   24 type  3   force =    -0.01202410    0.02375331    0.01525095
     atom   25 type  3   force =     0.01053550   -0.02511778    0.01382392
     The non-local contrib.  to forces
     atom    1 type  2   force =     0.00001242   -0.00000785   -0.00001475
     atom    2 type  1   force =    -0.06224953    0.00567883    0.09327778
     atom    3 type  1   force =    -0.11202048   -0.06610745    0.10989468
     atom    4 type  1   force =     0.06224342   -0.00567856   -0.09329999
     atom    5 type  1   force =     0.11201530    0.06611015   -0.10988258
     atom    6 type  4   force =    -0.02147089    0.00308176   -0.02396263
     atom    7 type  4   force =     0.02046447    0.00440906   -0.04012251
     atom    8 type  4   force =     0.02145655   -0.00308331    0.02392247
     atom    9 type  4   force =    -0.02046522   -0.00440554    0.04014080
     atom   10 type  3   force =     0.21878326    0.02545725   -1.48438036
     atom   11 type  3   force =    -0.35585822    0.02197511   -1.50862914
     atom   12 type  3   force =    -0.21881142   -0.02547293    1.48434468
     atom   13 type  3   force =     0.35584834   -0.02197408    1.50863364
     atom   14 type  3   force =     1.19819453   -0.01492546   -0.69695661
     atom   15 type  3   force =    -1.22688717    0.01030246   -0.57971300
     atom   16 type  3   force =    -1.19819976    0.01492663    0.69693658
     atom   17 type  3   force =     1.22686225   -0.01029335    0.57973361
     atom   18 type  3   force =    -0.63396633   -1.10605490    0.67458594
     atom   19 type  3   force =     0.56832962    1.11861671    0.74223564
     atom   20 type  3   force =     0.57628903   -1.09275721   -0.81743479
     atom   21 type  3   force =    -0.52681404    1.08860712   -0.73588263
     atom   22 type  3   force =     0.63397559    1.10607411   -0.67456038
     atom   23 type  3   force =    -0.56831946   -1.11860980   -0.74223921
     atom   24 type  3   force =    -0.57628349    1.09273179    0.81745616
     atom   25 type  3   force =     0.52681373   -1.08860780    0.73588158
     The ionic contribution  to forces
     atom    1 type  2   force =     0.00073846   -0.00027402   -0.00017791
     atom    2 type  1   force =     9.21222321   -1.60875283   -0.60076608
     atom    3 type  1   force =     1.81014933    0.96442917   -0.62573655
     atom    4 type  1   force =    -9.21261968    1.60901343    0.60076460
     atom    5 type  1   force =    -1.81035826   -0.96459304    0.62569141
     atom    6 type  4   force =    -1.35458561   -1.51325199    0.87721436
     atom    7 type  4   force =     4.15775943    0.04798423    0.39664088
     atom    8 type  4   force =     1.35464326    1.51331413   -0.87746585
     atom    9 type  4   force =    -4.15789657   -0.04798135   -0.39649836
     atom   10 type  3   force =    -5.66062241   -2.45082509    1.80624599
     atom   11 type  3   force =    10.82788918   -0.08027936    2.68493405
     atom   12 type  3   force =     5.66082186    2.45113155   -1.80576571
     atom   13 type  3   force =   -10.82801770    0.08025779   -2.68504794
     atom   14 type  3   force =     2.80210796    0.09322216    6.09452817
     atom   15 type  3   force =    -0.47434013    2.49099063    3.83464694
     atom   16 type  3   force =    -2.80229291   -0.09321328   -6.09447331
     atom   17 type  3   force =     0.47476187   -2.49115958   -3.83450006
     atom   18 type  3   force =     1.38631587    2.79484269   -0.68248504
     atom   19 type  3   force =     4.97786930   -3.12684164   -2.68481335
     atom   20 type  3   force =     1.31949038    2.55576672    2.98244962
     atom   21 type  3   force =    -4.53792029   -2.99350151    2.54953410
     atom   22 type  3   force =    -1.38640363   -2.79481449    0.68222358
     atom   23 type  3   force =    -4.97808685    3.12673287    2.68489834
     atom   24 type  3   force =    -1.31946454   -2.55568938   -2.98253126
     atom   25 type  3   force =     4.53783846    2.99349217   -2.54951061
     The local contribution  to forces
     atom    1 type  2   force =    -0.00074285    0.00027977    0.00019246
     atom    2 type  1   force =    -9.14701436    1.60301037    0.50571771
     atom    3 type  1   force =    -1.69238291   -0.89665309    0.51213752
     atom    4 type  1   force =     9.14741468   -1.60327009   -0.50568999
     atom    5 type  1   force =     1.69260474    0.89681401   -0.51210969
     atom    6 type  4   force =     1.37507041    1.51054692   -0.85360570
     atom    7 type  4   force =    -4.17953562   -0.05212237   -0.35875038
     atom    8 type  4   force =    -1.37512053   -1.51060618    0.85384482
     atom    9 type  4   force =     4.17966825    0.05211901    0.35861381
     atom   10 type  3   force =     5.44768991    2.42593554   -0.36559023
     atom   11 type  3   force =   -10.48189106    0.05890548   -1.21876094
     atom   12 type  3   force =    -5.44785569   -2.42622479    0.36517965
     atom   13 type  3   force =    10.48202712   -0.05888463    1.21885386
     atom   14 type  3   force =    -3.96411614   -0.07864448   -5.41738168
     atom   15 type  3   force =     1.66141010   -2.50107671   -3.27024280
     atom   16 type  3   force =     3.96429942    0.07863457    5.41734396
     atom   17 type  3   force =    -1.66179143    2.50123565    3.27008160
     atom   18 type  3   force =    -0.77111529   -1.72331087    0.02657731
     atom   19 type  3   force =    -5.52944606    2.04448302    1.96337598
     atom   20 type  3   force =    -1.87854525   -1.49654607   -2.18804143
     atom   21 type  3   force =     5.04942778    1.93984354   -1.83441458
     atom   22 type  3   force =     0.77119140    1.72325946   -0.02633788
     atom   23 type  3   force =     5.52964914   -2.04438881   -1.96345966
     atom   24 type  3   force =     1.87851306    1.49649722    2.18810627
     atom   25 type  3   force =    -5.04934881   -1.93982910    1.83439190
     The core correction contribution to forces
     atom    1 type  2   force =     0.00000000    0.00000000    0.00000000
     atom    2 type  1   force =     0.00032808   -0.00020123    0.00047756
     atom    3 type  1   force =     0.00152054    0.00058003   -0.00054007
     atom    4 type  1   force =    -0.00032824    0.00020121   -0.00047733
     atom    5 type  1   force =    -0.00152084   -0.00058010    0.00053999
     atom    6 type  4   force =     0.00149279    0.00017677    0.00120897
     atom    7 type  4   force =    -0.00156431   -0.00026237    0.00287243
     atom    8 type  4   force =    -0.00149146   -0.00017667   -0.00120521
     atom    9 type  4   force =     0.00156437    0.00026204   -0.00287422
     atom   10 type  3   force =    -0.00267365   -0.00021659    0.01345265
     atom   11 type  3   force =     0.00392587   -0.00021753    0.01370250
     atom   12 type  3   force =     0.00267392    0.00021671   -0.01345288
     atom   13 type  3   force =    -0.00392578    0.00021752   -0.01370225
     atom   14 type  3   force =    -0.01066435    0.00014376    0.00686683
     atom   15 type  3   force =     0.01083809   -0.00018327    0.00581302
     atom   16 type  3   force =     0.01066438   -0.00014378   -0.00686661
     atom   17 type  3   force =    -0.01083809    0.00018321   -0.00581332
     atom   18 type  3   force =     0.00572939    0.01005469   -0.00638810
     atom   19 type  3   force =    -0.00518507   -0.01011426   -0.00698319
     atom   20 type  3   force =    -0.00521117    0.00978817    0.00777907
     atom   21 type  3   force =     0.00476954   -0.00982515    0.00694008
     atom   22 type  3   force =    -0.00572938   -0.01005478    0.00638780
     atom   23 type  3   force =     0.00518501    0.01011429    0.00698327
     atom   24 type  3   force =     0.00521119   -0.00978802   -0.00777935
     atom   25 type  3   force =    -0.00476952    0.00982513   -0.00694006
     The Hubbard contrib.    to forces
     atom    1 type  2   force =     0.00000000    0.00000000    0.00000000
     atom    2 type  1   force =     0.00000000    0.00000000    0.00000000
     atom    3 type  1   force =     0.00000000    0.00000000    0.00000000
     atom    4 type  1   force =     0.00000000    0.00000000    0.00000000
     atom    5 type  1   force =     0.00000000    0.00000000    0.00000000
     atom    6 type  4   force =     0.00000000    0.00000000    0.00000000
     atom    7 type  4   force =     0.00000000    0.00000000    0.00000000
     atom    8 type  4   force =     0.00000000    0.00000000    0.00000000
     atom    9 type  4   force =     0.00000000    0.00000000    0.00000000
     atom   10 type  3   force =     0.00000000    0.00000000    0.00000000
     atom   11 type  3   force =     0.00000000    0.00000000    0.00000000
     atom   12 type  3   force =     0.00000000    0.00000000    0.00000000
     atom   13 type  3   force =     0.00000000    0.00000000    0.00000000
     atom   14 type  3   force =     0.00000000    0.00000000    0.00000000
     atom   15 type  3   force =     0.00000000    0.00000000    0.00000000
     atom   16 type  3   force =     0.00000000    0.00000000    0.00000000
     atom   17 type  3   force =     0.00000000    0.00000000    0.00000000
     atom   18 type  3   force =     0.00000000    0.00000000    0.00000000
     atom   19 type  3   force =     0.00000000    0.00000000    0.00000000
     atom   20 type  3   force =     0.00000000    0.00000000    0.00000000
     atom   21 type  3   force =     0.00000000    0.00000000    0.00000000
     atom   22 type  3   force =     0.00000000    0.00000000    0.00000000
     atom   23 type  3   force =     0.00000000    0.00000000    0.00000000
     atom   24 type  3   force =     0.00000000    0.00000000    0.00000000
     atom   25 type  3   force =     0.00000000    0.00000000    0.00000000
     The SCF correction term to forces
     atom    1 type  2   force =    -0.00000337    0.00000040    0.00000003
     atom    2 type  1   force =     0.00000282    0.00000009   -0.00000034
     atom    3 type  1   force =     0.00000059    0.00000024   -0.00000053
     atom    4 type  1   force =     0.00000042   -0.00000016    0.00000093
     atom    5 type  1   force =    -0.00000290   -0.00000030    0.00000014
     atom    6 type  4   force =    -0.00000062    0.00000006    0.00000012
     atom    7 type  4   force =     0.00000207   -0.00000002    0.00000039
     atom    8 type  4   force =    -0.00000245   -0.00000010    0.00000003
     atom    9 type  4   force =     0.00000071    0.00000003   -0.00000016
     atom   10 type  3   force =    -0.00000035   -0.00000002    0.00000041
     atom   11 type  3   force =     0.00000303   -0.00000007   -0.00000098
     atom   12 type  3   force =    -0.00000496    0.00000003   -0.00000204
     atom   13 type  3   force =     0.00000006    0.00000002    0.00000133
     atom   14 type  3   force =     0.00000147    0.00000007   -0.00000027
     atom   15 type  3   force =    -0.00000316   -0.00000006    0.00000063
     atom   16 type  3   force =     0.00000582    0.00000002    0.00000105
     atom   17 type  3   force =    -0.00000079    0.00000011   -0.00000062
     atom   18 type  3   force =    -0.00000021   -0.00000149   -0.00000080
     atom   19 type  3   force =     0.00000167   -0.00000182    0.00000107
     atom   20 type  3   force =    -0.00000262   -0.00000261    0.00000195
     atom   21 type  3   force =     0.00000052   -0.00000366   -0.00000195
     atom   22 type  3   force =    -0.00000277    0.00000248    0.00000196
     atom   23 type  3   force =     0.00000055    0.00000355   -0.00000180
     atom   24 type  3   force =    -0.00000029    0.00000170   -0.00000091
     atom   25 type  3   force =     0.00000168    0.00000183    0.00000108

     Total force =     0.121978     Total SCF correction =     0.000015


     Computing stress (Cartesian axis) and pressure


     negative rho (up, down):  0.000E+00 9.387E-04
          total   stress  (Ry/bohr**3)                   (kbar)     P=      -93.54
  -0.00081634   0.00000533   0.00001582         -120.09        0.78        2.33
   0.00000533  -0.00056444  -0.00001300            0.78      -83.03       -1.91
   0.00001582  -0.00001300  -0.00052684            2.33       -1.91      -77.50

     kinetic stress (kbar)  24954.81     19.78     -3.54
                               19.78  25168.33      0.84
                               -3.54      0.84  24982.55

     local   stress (kbar)  -4991.64   2629.02   -845.93
                             2629.02 -14345.50    908.46
                             -845.93    908.46  -7515.90

     nonloc. stress (kbar)  -6332.81      0.91      0.79
                                0.91  -6287.40      1.58
                                0.79      1.58  -6283.08

     hartree stress (kbar)  12222.73  -1068.50    328.46
                            -1068.50  17251.96   -370.45
                              328.46   -370.45  13904.55

     exc-cor stress (kbar)  -2648.73     -1.39      0.61
                               -1.39  -2654.86     -0.30
                                0.61     -0.30  -2653.11

     corecor stress (kbar)  -2962.44      0.53     -0.51
                                0.53  -2962.22     -0.04
                               -0.51     -0.04  -2963.88

     ewald   stress (kbar) -20362.00  -1579.55    522.44
                            -1579.55 -16253.33   -542.01
                              522.44   -542.01 -19548.64

     hubbard stress (kbar)      0.00      0.00      0.00
                                0.00      0.00      0.00
                                0.00      0.00      0.00

     DFT-D   stress (kbar)      0.00      0.00      0.00
                                0.00      0.00      0.00
                                0.00      0.00      0.00

     XDM     stress (kbar)      0.00      0.00      0.00
                                0.00      0.00      0.00
                                0.00      0.00      0.00

     dft-nl  stress (kbar)      0.00      0.00      0.00
                                0.00      0.00      0.00
                                0.00      0.00      0.00

     TS-vdW  stress (kbar)      0.00      0.00      0.00
                                0.00      0.00      0.00
                                0.00      0.00      0.00



     init_run     :   2116.89s CPU   2506.75s WALL (       1 calls)
     electrons    : 171637.58s CPU 209122.59s WALL (       1 calls)
     forces       :    353.86s CPU    355.34s WALL (       1 calls)
     stress       :   1031.70s CPU   1037.09s WALL (       1 calls)

     Called by init_run:
     wfcinit      :   2095.86s CPU   2482.46s WALL (       1 calls)
     wfcinit:atom :      1.66s CPU      1.95s WALL (     316 calls)
     wfcinit:wfcr :   2084.14s CPU   2468.54s WALL (     316 calls)
     potinit      :      9.14s CPU      9.69s WALL (       1 calls)
     hinit0       :      8.30s CPU      9.56s WALL (       1 calls)

     Called by electrons:
     c_bands      : 142646.12s CPU 174271.19s WALL (      36 calls)
     sum_band     :  28717.26s CPU  34501.46s WALL (      36 calls)
     v_of_rho     :     81.44s CPU     97.18s WALL (      37 calls)
     v_h          :      5.67s CPU      6.65s WALL (      37 calls)
     v_xc         :     80.55s CPU     95.34s WALL (      39 calls)
     newd         :     88.11s CPU    126.91s WALL (      37 calls)
     PAW_pot      :     38.09s CPU     45.78s WALL (      37 calls)
     mix_rho      :     52.63s CPU     63.35s WALL (      36 calls)

     Called by c_bands:
     init_us_2    :    186.20s CPU    226.34s WALL (   23700 calls)
     cegterg      : 141257.12s CPU 172525.59s WALL (   11376 calls)

     Called by sum_band:
     sum_band:wei :      0.61s CPU      0.79s WALL (      36 calls)
     sum_band:loo :  28490.10s CPU  34201.24s WALL (      36 calls)
     sum_band:buf :     46.74s CPU     51.45s WALL (   11376 calls)
     sum_band:ini :     79.20s CPU     97.00s WALL (   11376 calls)
     sum_band:cal :   2380.94s CPU   2835.36s WALL (   11376 calls)
     sum_band:bec :      6.06s CPU      6.36s WALL (   11376 calls)
     addusdens    :    176.10s CPU    244.28s WALL (      36 calls)
     addusd:skk   :      0.93s CPU      1.22s WALL (     108 calls)
     addusd:dgemm :     46.47s CPU     79.44s WALL (     216 calls)
     addusd:qvan2 :    125.76s CPU    155.12s WALL (     216 calls)

     Called by *egterg:
     cdiaghg      :   3670.14s CPU   4558.80s WALL (   41015 calls)
     cegterg:over :   6531.42s CPU   7865.27s WALL (   29639 calls)
     cegterg:upda :   1237.88s CPU   1563.62s WALL (   29639 calls)
     cegterg:last :   2542.45s CPU   3197.97s WALL (   18232 calls)
     h_psi        : 120527.52s CPU 147178.53s WALL (   41331 calls)
     s_psi        :   2833.18s CPU   3536.00s WALL (   41331 calls)
     g_psi        :     21.08s CPU     25.63s WALL (   29639 calls)

     Called by h_psi:
     h_psi:calbec :   5891.32s CPU   7124.77s WALL (   41331 calls)
     vloc_psi     : 111660.55s CPU 136284.12s WALL (   41331 calls)
     add_vuspsi   :   2903.95s CPU   3688.53s WALL (   41331 calls)

     General routines
     calbec       :   8926.23s CPU  10615.72s WALL (   54287 calls)
     fft          :    134.05s CPU    153.41s WALL (     963 calls)
     ffts         :     11.79s CPU     14.11s WALL (     146 calls)
     fftw         : 137024.19s CPU 166847.19s WALL ( 6957236 calls)
     interpolate  :     13.04s CPU     15.46s WALL (      74 calls)

     Parallel routines
     fft_scatt_xy :    849.49s CPU    851.40s WALL ( 6958345 calls)
     fft_scatt_yz : 132943.88s CPU 162699.90s WALL ( 6958345 calls)

     PAW routines
     PAW_pot      :     38.09s CPU     45.78s WALL (      37 calls)

     PWSCF        :   2d 0h39m CPU   2d11h10m WALL


   This run was terminated on:   4:49: 9  31Jan2023            

=------------------------------------------------------------------------------=
   JOB DONE.
=------------------------------------------------------------------------------=
Note: The following floating-point exceptions are signalling: IEEE_UNDERFLOW_FLAG IEEE_DENORMAL
Note: The following floating-point exceptions are signalling: IEEE_DENORMAL
Note: The following floating-point exceptions are signalling: IEEE_DENORMAL
Note: The following floating-point exceptions are signalling: IEEE_DENORMAL
Note: The following floating-point exceptions are signalling: IEEE_DENORMAL
Note: The following floating-point exceptions are signalling: IEEE_DENORMAL
Note: The following floating-point exceptions are signalling: IEEE_DENORMAL
Note: The following floating-point exceptions are signalling: IEEE_DENORMAL
Note: The following floating-point exceptions are signalling: IEEE_DENORMAL
