
     Program PWSCF v.6.7MaX starts on 28Sep2022 at 20:48:12 

     This program is part of the open-source Quantum ESPRESSO suite
     for quantum simulation of materials; please cite
         "P. Giannozzi et al., J. Phys.:Condens. Matter 21 395502 (2009);
         "P. Giannozzi et al., J. Phys.:Condens. Matter 29 465901 (2017);
          URL http://www.quantum-espresso.org", 
     in publications or presentations arising from this work. More details at
     http://www.quantum-espresso.org/quote

     Parallel version (MPI), running on    16 processors

     MPI processes distributed on     1 nodes
     R & G space division:  proc/nbgrp/npool/nimage =      16
     Reading input from scale_2dab-05.in

     Current dimensions of program PWSCF are:
     Max number of different atomic species (ntypx) = 10
     Max number of k-points (npk) =  40000
     Max angular momentum in pseudopotentials (lmaxx) =  3
     Message from routine read_pp_mesh:
     mesh size missing, using the one in header

     Subspace diagonalization in iterative solution of the eigenvalue problem:
     a serial algorithm will be used


     Parallelization info
     --------------------
     sticks:   dense  smooth     PW     G-vecs:    dense   smooth      PW
     Min         209     152     43                 7827     4854     725
     Max         210     153     44                 7831     4856     727
     Sum        3355    2437    691               125265    77679   11615



     bravais-lattice index     =            0
     lattice parameter (alat)  =      10.3421  a.u.
     unit-cell volume          =     803.8047 (a.u.)^3
     number of atoms/cell      =           15
     number of atomic types    =            2
     number of electrons       =        49.00
     number of Kohn-Sham states=           30
     kinetic-energy cutoff     =      80.0000  Ry
     charge density cutoff     =     440.0000  Ry
     scf convergence threshold =      2.0E-10
     mixing beta               =       0.4000
     number of iterations used =            8  plain     mixing
     Exchange-correlation= PBE
                           (   1   4   3   4   0   0   0)

     celldm(1)=  10.342112  celldm(2)=   0.000000  celldm(3)=   0.000000
     celldm(4)=   0.000000  celldm(5)=   0.000000  celldm(6)=   0.000000

     crystal axes: (cart. coord. in units of alat)
               a(1) = (   1.000000   0.000000   0.000000 )  
               a(2) = (   0.445021   0.895520   0.000000 )  
               a(3) = (   0.423830   0.262659   0.811423 )  

     reciprocal axes: (cart. coord. in units 2 pi/alat)
               b(1) = (  1.000000 -0.496942 -0.361468 )  
               b(2) = (  0.000000  1.116670 -0.361468 )  
               b(3) = (  0.000000  0.000000  1.232402 )  


     PseudoPot. # 1 for B  read from file:
     /opt/QEpot/SSSP_precision_pseudos/B_pbe_v1.01.uspp.F.UPF
     MD5 check sum: d081ebb89d0c768e112975f650467a00
     Pseudo is Ultrasoft + core correction, Zval =  3.0
     Generated by new atomic code, or converted to UPF format
     Using radial grid of  781 points,  4 beta functions with: 
                l(1) =   0
                l(2) =   0
                l(3) =   1
                l(4) =   1
     Q(r) pseudized with  8 coefficients,  rinner =    1.100   1.100   1.100


     PseudoPot. # 2 for N  read from file:
     /opt/QEpot/SSSP_precision_pseudos/N.oncvpsp.upf
     MD5 check sum: 563d65bfb082928f0c9eb97172f6c357
     Pseudo is Norm-conserving + core correction, Zval =  5.0
     Generated using ONCVPSP code by D. R. Hamann
     Using radial grid of 1058 points,  4 beta functions with: 
                l(1) =   0
                l(2) =   0
                l(3) =   1
                l(4) =   1

     atomic species   valence    mass     pseudopotential
        B              3.00    10.81000     B ( 1.00)
        N              5.00    14.00700     N ( 1.00)

     No symmetry found


                                    s                        frac. trans.

      isym =  1     identity                                     

 cryst.   s( 1) = (     1          0          0      )
                  (     0          1          0      )
                  (     0          0          1      )

 cart.    s( 1) = (  1.0000000 -0.0000000  0.0000000 )
                  (  0.0000000  1.0000000 -0.0000000 )
                  (  0.0000000  0.0000000  1.0000000 )


   Cartesian axes

     site n.     atom                  positions (alat units)
         1           B   tau(   1) = (   0.8514636   0.2264137   0.1589554  )
         2           B   tau(   2) = (   0.5726185   0.3553172   0.5525443  )
         3           B   tau(   3) = (   0.5825162   0.6598432   0.1589181  )
         4           B   tau(   4) = (   1.2861837   0.4958219   0.6510431  )
         5           B   tau(   5) = (   1.0175844   0.9307035   0.6523218  )
         6           B   tau(   6) = (   1.2958054   0.8022599   0.2586956  )
         7           B   tau(   7) = (   1.5342144   1.1513854   0.8069930  )
         8           B   tau(   8) = (   1.7219486   1.0675891   0.5434962  )
         9           B   tau(   9) = (   1.7146855   0.8596282   0.8069557  )
        10           B   tau(  10) = (   0.1540144   0.2960369   0.0030055  )
        11           B   tau(  11) = (   0.3348335   0.0057318   0.0042842  )
        12           B   tau(  12) = (   0.1470994   0.0895281   0.2677811  )
        13           B   tau(  13) = (   0.9343860   0.5795146   0.4062780  )
        14           N   tau(  14) = (   1.1498508   0.7109611   0.4984306  )
        15           N   tau(  15) = (   0.7191971   0.4461561   0.3128466  )

   Crystallographic axes

     site n.     atom                  positions (cryst. coord.)
         1           B   tau(   1) = (  0.6814919  0.1953721  0.1958970  )
         2           B   tau(   2) = (  0.1963196  0.1970450  0.6809569  )
         3           B   tau(   3) = (  0.1971688  0.6793831  0.1958510  )
         4           B   tau(   4) = (  0.8044579  0.3183381  0.8023470  )
         5           B   tau(   5) = (  0.3192856  0.8034950  0.8039229  )
         6           B   tau(   6) = (  0.8036188  0.8023491  0.3188170  )
         7           B   tau(   7) = (  0.6703409  0.9940151  0.9945400  )
         8           B   tau(   8) = (  0.9949626  0.9956880  0.6698059  )
         9           B   tau(   9) = (  0.9958118  0.6682321  0.9944940  )
        10           B   tau(  10) = (  0.0058149  0.3294891  0.0037040  )
        11           B   tau(  11) = (  0.3304366  0.0048520  0.0052799  )
        12           B   tau(  12) = (  0.0058149  0.0031791  0.3300140  )
        13           B   tau(  13) = (  0.4995446  0.5002700  0.5006979  )
        14           N   tau(  14) = (  0.6163779  0.6137421  0.6142670  )
        15           N   tau(  15) = (  0.3843996  0.3851250  0.3855529  )

     number of k points=    63  Marzari-Vanderbilt smearing, width (Ry)=  0.0220
                       cart. coord. in units 2pi/alat
        k(    1) = (   0.0000000   0.0000000   0.0000000), wk =   0.0160000
        k(    2) = (   0.0000000   0.0000000   0.2464804), wk =   0.0320000
        k(    3) = (   0.0000000   0.0000000   0.4929609), wk =   0.0320000
        k(    4) = (   0.0000000   0.2233339  -0.0722936), wk =   0.0320000
        k(    5) = (   0.0000000   0.2233339   0.1741869), wk =   0.0320000
        k(    6) = (   0.0000000   0.2233339   0.4206673), wk =   0.0320000
        k(    7) = (   0.0000000   0.2233339  -0.5652544), wk =   0.0320000
        k(    8) = (   0.0000000   0.2233339  -0.3187740), wk =   0.0320000
        k(    9) = (   0.0000000   0.4466679  -0.1445871), wk =   0.0320000
        k(   10) = (   0.0000000   0.4466679   0.1018933), wk =   0.0320000
        k(   11) = (   0.0000000   0.4466679   0.3483737), wk =   0.0320000
        k(   12) = (   0.0000000   0.4466679  -0.6375480), wk =   0.0320000
        k(   13) = (   0.0000000   0.4466679  -0.3910676), wk =   0.0320000
        k(   14) = (   0.2000000  -0.0993884  -0.0722936), wk =   0.0320000
        k(   15) = (   0.2000000  -0.0993884   0.1741869), wk =   0.0320000
        k(   16) = (   0.2000000  -0.0993884   0.4206673), wk =   0.0320000
        k(   17) = (   0.2000000  -0.0993884  -0.5652544), wk =   0.0320000
        k(   18) = (   0.2000000  -0.0993884  -0.3187740), wk =   0.0320000
        k(   19) = (   0.2000000   0.1239456  -0.1445871), wk =   0.0320000
        k(   20) = (   0.2000000   0.1239456   0.1018933), wk =   0.0320000
        k(   21) = (   0.2000000   0.1239456   0.3483737), wk =   0.0320000
        k(   22) = (   0.2000000   0.1239456  -0.6375480), wk =   0.0320000
        k(   23) = (   0.2000000   0.1239456  -0.3910676), wk =   0.0320000
        k(   24) = (   0.2000000   0.3472795  -0.2168807), wk =   0.0320000
        k(   25) = (   0.2000000   0.3472795   0.0295997), wk =   0.0320000
        k(   26) = (   0.2000000   0.3472795   0.2760802), wk =   0.0320000
        k(   27) = (   0.2000000   0.3472795  -0.7098416), wk =   0.0320000
        k(   28) = (   0.2000000   0.3472795  -0.4633612), wk =   0.0320000
        k(   29) = (   0.2000000  -0.5460562   0.0722936), wk =   0.0320000
        k(   30) = (   0.2000000  -0.5460562   0.3187740), wk =   0.0320000
        k(   31) = (   0.2000000  -0.5460562   0.5652544), wk =   0.0320000
        k(   32) = (   0.2000000  -0.5460562  -0.4206673), wk =   0.0320000
        k(   33) = (   0.2000000  -0.5460562  -0.1741869), wk =   0.0320000
        k(   34) = (   0.2000000  -0.3227223   0.0000000), wk =   0.0320000
        k(   35) = (   0.2000000  -0.3227223   0.2464804), wk =   0.0320000
        k(   36) = (   0.2000000  -0.3227223   0.4929609), wk =   0.0320000
        k(   37) = (   0.2000000  -0.3227223  -0.4929609), wk =   0.0320000
        k(   38) = (   0.2000000  -0.3227223  -0.2464804), wk =   0.0320000
        k(   39) = (   0.4000000  -0.1987767  -0.1445871), wk =   0.0320000
        k(   40) = (   0.4000000  -0.1987767   0.1018933), wk =   0.0320000
        k(   41) = (   0.4000000  -0.1987767   0.3483737), wk =   0.0320000
        k(   42) = (   0.4000000  -0.1987767  -0.6375480), wk =   0.0320000
        k(   43) = (   0.4000000  -0.1987767  -0.3910676), wk =   0.0320000
        k(   44) = (   0.4000000   0.0245572  -0.2168807), wk =   0.0320000
        k(   45) = (   0.4000000   0.0245572   0.0295997), wk =   0.0320000
        k(   46) = (   0.4000000   0.0245572   0.2760802), wk =   0.0320000
        k(   47) = (   0.4000000   0.0245572  -0.7098416), wk =   0.0320000
        k(   48) = (   0.4000000   0.0245572  -0.4633612), wk =   0.0320000
        k(   49) = (   0.4000000   0.2478912  -0.2891743), wk =   0.0320000
        k(   50) = (   0.4000000   0.2478912  -0.0426939), wk =   0.0320000
        k(   51) = (   0.4000000   0.2478912   0.2037866), wk =   0.0320000
        k(   52) = (   0.4000000   0.2478912  -0.7821352), wk =   0.0320000
        k(   53) = (   0.4000000   0.2478912  -0.5356547), wk =   0.0320000
        k(   54) = (   0.4000000  -0.6454446   0.0000000), wk =   0.0320000
        k(   55) = (   0.4000000  -0.6454446   0.2464804), wk =   0.0320000
        k(   56) = (   0.4000000  -0.6454446   0.4929609), wk =   0.0320000
        k(   57) = (   0.4000000  -0.6454446  -0.4929609), wk =   0.0320000
        k(   58) = (   0.4000000  -0.6454446  -0.2464804), wk =   0.0320000
        k(   59) = (   0.4000000  -0.4221106  -0.0722936), wk =   0.0320000
        k(   60) = (   0.4000000  -0.4221106   0.1741869), wk =   0.0320000
        k(   61) = (   0.4000000  -0.4221106   0.4206673), wk =   0.0320000
        k(   62) = (   0.4000000  -0.4221106  -0.5652544), wk =   0.0320000
        k(   63) = (   0.4000000  -0.4221106  -0.3187740), wk =   0.0320000

                       cryst. coord.
        k(    1) = (   0.0000000   0.0000000   0.0000000), wk =   0.0160000
        k(    2) = (   0.0000000   0.0000000   0.2000000), wk =   0.0320000
        k(    3) = (   0.0000000   0.0000000   0.4000000), wk =   0.0320000
        k(    4) = (   0.0000000   0.2000000   0.0000000), wk =   0.0320000
        k(    5) = (   0.0000000   0.2000000   0.2000000), wk =   0.0320000
        k(    6) = (   0.0000000   0.2000000   0.4000000), wk =   0.0320000
        k(    7) = (   0.0000000   0.2000000  -0.4000000), wk =   0.0320000
        k(    8) = (   0.0000000   0.2000000  -0.2000000), wk =   0.0320000
        k(    9) = (   0.0000000   0.4000000   0.0000000), wk =   0.0320000
        k(   10) = (   0.0000000   0.4000000   0.2000000), wk =   0.0320000
        k(   11) = (   0.0000000   0.4000000   0.4000000), wk =   0.0320000
        k(   12) = (   0.0000000   0.4000000  -0.4000000), wk =   0.0320000
        k(   13) = (   0.0000000   0.4000000  -0.2000000), wk =   0.0320000
        k(   14) = (   0.2000000   0.0000000   0.0000000), wk =   0.0320000
        k(   15) = (   0.2000000   0.0000000   0.2000000), wk =   0.0320000
        k(   16) = (   0.2000000   0.0000000   0.4000000), wk =   0.0320000
        k(   17) = (   0.2000000   0.0000000  -0.4000000), wk =   0.0320000
        k(   18) = (   0.2000000   0.0000000  -0.2000000), wk =   0.0320000
        k(   19) = (   0.2000000   0.2000000   0.0000000), wk =   0.0320000
        k(   20) = (   0.2000000   0.2000000   0.2000000), wk =   0.0320000
        k(   21) = (   0.2000000   0.2000000   0.4000000), wk =   0.0320000
        k(   22) = (   0.2000000   0.2000000  -0.4000000), wk =   0.0320000
        k(   23) = (   0.2000000   0.2000000  -0.2000000), wk =   0.0320000
        k(   24) = (   0.2000000   0.4000000   0.0000000), wk =   0.0320000
        k(   25) = (   0.2000000   0.4000000   0.2000000), wk =   0.0320000
        k(   26) = (   0.2000000   0.4000000   0.4000000), wk =   0.0320000
        k(   27) = (   0.2000000   0.4000000  -0.4000000), wk =   0.0320000
        k(   28) = (   0.2000000   0.4000000  -0.2000000), wk =   0.0320000
        k(   29) = (   0.2000000  -0.4000000   0.0000000), wk =   0.0320000
        k(   30) = (   0.2000000  -0.4000000   0.2000000), wk =   0.0320000
        k(   31) = (   0.2000000  -0.4000000   0.4000000), wk =   0.0320000
        k(   32) = (   0.2000000  -0.4000000  -0.4000000), wk =   0.0320000
        k(   33) = (   0.2000000  -0.4000000  -0.2000000), wk =   0.0320000
        k(   34) = (   0.2000000  -0.2000000   0.0000000), wk =   0.0320000
        k(   35) = (   0.2000000  -0.2000000   0.2000000), wk =   0.0320000
        k(   36) = (   0.2000000  -0.2000000   0.4000000), wk =   0.0320000
        k(   37) = (   0.2000000  -0.2000000  -0.4000000), wk =   0.0320000
        k(   38) = (   0.2000000  -0.2000000  -0.2000000), wk =   0.0320000
        k(   39) = (   0.4000000   0.0000000   0.0000000), wk =   0.0320000
        k(   40) = (   0.4000000   0.0000000   0.2000000), wk =   0.0320000
        k(   41) = (   0.4000000   0.0000000   0.4000000), wk =   0.0320000
        k(   42) = (   0.4000000   0.0000000  -0.4000000), wk =   0.0320000
        k(   43) = (   0.4000000   0.0000000  -0.2000000), wk =   0.0320000
        k(   44) = (   0.4000000   0.2000000   0.0000000), wk =   0.0320000
        k(   45) = (   0.4000000   0.2000000   0.2000000), wk =   0.0320000
        k(   46) = (   0.4000000   0.2000000   0.4000000), wk =   0.0320000
        k(   47) = (   0.4000000   0.2000000  -0.4000000), wk =   0.0320000
        k(   48) = (   0.4000000   0.2000000  -0.2000000), wk =   0.0320000
        k(   49) = (   0.4000000   0.4000000   0.0000000), wk =   0.0320000
        k(   50) = (   0.4000000   0.4000000   0.2000000), wk =   0.0320000
        k(   51) = (   0.4000000   0.4000000   0.4000000), wk =   0.0320000
        k(   52) = (   0.4000000   0.4000000  -0.4000000), wk =   0.0320000
        k(   53) = (   0.4000000   0.4000000  -0.2000000), wk =   0.0320000
        k(   54) = (   0.4000000  -0.4000000   0.0000000), wk =   0.0320000
        k(   55) = (   0.4000000  -0.4000000   0.2000000), wk =   0.0320000
        k(   56) = (   0.4000000  -0.4000000   0.4000000), wk =   0.0320000
        k(   57) = (   0.4000000  -0.4000000  -0.4000000), wk =   0.0320000
        k(   58) = (   0.4000000  -0.4000000  -0.2000000), wk =   0.0320000
        k(   59) = (   0.4000000  -0.2000000   0.0000000), wk =   0.0320000
        k(   60) = (   0.4000000  -0.2000000   0.2000000), wk =   0.0320000
        k(   61) = (   0.4000000  -0.2000000   0.4000000), wk =   0.0320000
        k(   62) = (   0.4000000  -0.2000000  -0.4000000), wk =   0.0320000
        k(   63) = (   0.4000000  -0.2000000  -0.2000000), wk =   0.0320000

     Dense  grid:   125265 G-vectors     FFT dimensions: (  72,  72,  72)

     Smooth grid:    77679 G-vectors     FFT dimensions: (  60,  60,  60)

     Dynamical RAM for                 wfc:       0.28 MB

     Dynamical RAM for     wfc (w. buffer):      17.78 MB

     Dynamical RAM for           str. fact:       0.24 MB

     Dynamical RAM for           local pot:       0.00 MB

     Dynamical RAM for          nlocal pot:       1.11 MB

     Dynamical RAM for                qrad:       0.96 MB

     Dynamical RAM for          rho,v,vnew:       0.95 MB

     Dynamical RAM for               rhoin:       0.32 MB

     Dynamical RAM for            rho*nmix:       1.91 MB

     Dynamical RAM for           G-vectors:       0.49 MB

     Dynamical RAM for          h,s,v(r/c):       0.16 MB

     Dynamical RAM for          <psi|beta>:       0.05 MB

     Dynamical RAM for                 psi:       0.56 MB

     Dynamical RAM for                hpsi:       0.56 MB

     Dynamical RAM for                spsi:       0.56 MB

     Dynamical RAM for      wfcinit/wfcrot:       1.19 MB

     Dynamical RAM for           addusdens:       6.69 MB

     Dynamical RAM for          addusforce:       9.63 MB

     Dynamical RAM for         addusstress:       5.97 MB

     Estimated static dynamical RAM per process >      25.11 MB

     Estimated max dynamical RAM per process >      34.74 MB

     Estimated total dynamical RAM >     555.81 MB

     Check: negative core charge=   -0.000012

     Initial potential from superposition of free atoms

     starting charge   48.99632, renormalised to   49.00000
     Starting wfcs are   60 randomized atomic wfcs

     total cpu time spent up to now is        4.4 secs

     Self-consistent Calculation

     iteration #  1     ecut=    80.00 Ry     beta= 0.40
     Davidson diagonalization with overlap
     ethr =  1.00E-02,  avg # of iterations =  2.0

     total cpu time spent up to now is        8.8 secs

     total energy              =    -126.01937191 Ry
     estimated scf accuracy    <       1.12753786 Ry

     iteration #  2     ecut=    80.00 Ry     beta= 0.40
     Davidson diagonalization with overlap
     ethr =  2.30E-03,  avg # of iterations =  3.8

     total cpu time spent up to now is       13.1 secs

     total energy              =    -126.13221727 Ry
     estimated scf accuracy    <       0.16035270 Ry

     iteration #  3     ecut=    80.00 Ry     beta= 0.40
     Davidson diagonalization with overlap
     ethr =  3.27E-04,  avg # of iterations =  2.2

     total cpu time spent up to now is       17.1 secs

     total energy              =    -126.14698127 Ry
     estimated scf accuracy    <       0.03221779 Ry

     iteration #  4     ecut=    80.00 Ry     beta= 0.40
     Davidson diagonalization with overlap
     ethr =  6.58E-05,  avg # of iterations =  6.9

     total cpu time spent up to now is       23.0 secs

     total energy              =    -126.15282684 Ry
     estimated scf accuracy    <       0.00363779 Ry

     iteration #  5     ecut=    80.00 Ry     beta= 0.40
     Davidson diagonalization with overlap
     c_bands:  1 eigenvalues not converged
     c_bands:  1 eigenvalues not converged
     ethr =  7.42E-06,  avg # of iterations =  9.0

     total cpu time spent up to now is       30.1 secs

     total energy              =    -126.15413856 Ry
     estimated scf accuracy    <       0.00046397 Ry

     iteration #  6     ecut=    80.00 Ry     beta= 0.40
     Davidson diagonalization with overlap
     ethr =  9.47E-07,  avg # of iterations =  5.6

     total cpu time spent up to now is       35.9 secs

     total energy              =    -126.15434902 Ry
     estimated scf accuracy    <       0.00004224 Ry

     iteration #  7     ecut=    80.00 Ry     beta= 0.40
     Davidson diagonalization with overlap
     ethr =  8.62E-08,  avg # of iterations =  6.1

     total cpu time spent up to now is       43.0 secs

     total energy              =    -126.15437917 Ry
     estimated scf accuracy    <       0.00001724 Ry

     iteration #  8     ecut=    80.00 Ry     beta= 0.40
     Davidson diagonalization with overlap
     ethr =  3.52E-08,  avg # of iterations =  4.4

     total cpu time spent up to now is       48.0 secs

     total energy              =    -126.15438504 Ry
     estimated scf accuracy    <       0.00000381 Ry

     iteration #  9     ecut=    80.00 Ry     beta= 0.40
     Davidson diagonalization with overlap
     ethr =  7.77E-09,  avg # of iterations =  4.5

     total cpu time spent up to now is       52.8 secs

     total energy              =    -126.15438629 Ry
     estimated scf accuracy    <       0.00000019 Ry

     iteration # 10     ecut=    80.00 Ry     beta= 0.40
     Davidson diagonalization with overlap
     ethr =  3.84E-10,  avg # of iterations =  5.6

     total cpu time spent up to now is       59.7 secs

     total energy              =    -126.15438635 Ry
     estimated scf accuracy    <       0.00000034 Ry

     iteration # 11     ecut=    80.00 Ry     beta= 0.40
     Davidson diagonalization with overlap
     ethr =  3.84E-10,  avg # of iterations =  4.1

     total cpu time spent up to now is       64.4 secs

     total energy              =    -126.15438641 Ry
     estimated scf accuracy    <          3.2E-09 Ry

     iteration # 12     ecut=    80.00 Ry     beta= 0.40
     Davidson diagonalization with overlap
     ethr =  6.51E-12,  avg # of iterations =  6.2

     total cpu time spent up to now is       71.7 secs

     total energy              =    -126.15438642 Ry
     estimated scf accuracy    <          4.1E-09 Ry

     iteration # 13     ecut=    80.00 Ry     beta= 0.40
     Davidson diagonalization with overlap
     ethr =  6.51E-12,  avg # of iterations =  3.2

     total cpu time spent up to now is       76.2 secs

     total energy              =    -126.15438642 Ry
     estimated scf accuracy    <          2.8E-10 Ry

     iteration # 14     ecut=    80.00 Ry     beta= 0.40
     Davidson diagonalization with overlap
     ethr =  5.80E-13,  avg # of iterations =  3.2

     total cpu time spent up to now is       80.5 secs

     End of self-consistent calculation

          k = 0.0000 0.0000 0.0000 (  9685 PWs)   bands (ev):

   -10.4365  -9.5687  -5.9110  -2.6931  -2.4361  -1.7258  -0.9986  -0.9675
    -0.6799   0.8262   0.8340   0.8647   0.8765   1.0912   1.4370   4.3823
     4.3992   4.6371   4.7362   5.2918   5.3592   5.9331   6.8678   7.2636
    11.5991  11.6568  12.0288  12.6893  13.0410  13.2530

     occupation numbers 
     1.0000   1.0000   1.0000   1.0000   1.0000   1.0000   1.0000   1.0000
     1.0000   1.0000   1.0000   1.0000   1.0000   1.0000   1.0000   1.0000
     1.0000   1.0000   1.0000   1.0000   1.0000   1.0000   1.0000   1.0000
     0.0000   0.0000   0.0000   0.0000   0.0000   0.0000

          k = 0.0000 0.0000 0.2465 (  9732 PWs)   bands (ev):

   -10.3638  -9.6184  -6.0162  -2.7963  -2.5531  -2.0668  -0.7480  -0.6702
    -0.3327   0.2224   0.2273   0.7597   1.5232   1.8107   2.1000   4.0899
     4.4925   4.5854   4.7885   4.8007   5.5805   5.8242   6.8109   6.9169
    10.8537  11.4347  11.7288  12.6202  13.3466  13.3951

     occupation numbers 
     1.0000   1.0000   1.0000   1.0000   1.0000   1.0000   1.0000   1.0000
     1.0000   1.0000   1.0000   1.0000   1.0000   1.0000   1.0000   1.0000
     1.0000   1.0000   1.0000   1.0000   1.0000   1.0000   1.0000   1.0000
     0.0001   0.0000   0.0000   0.0000   0.0000   0.0000

          k = 0.0000 0.0000 0.4930 (  9722 PWs)   bands (ev):

   -10.2144  -9.7275  -6.1986  -2.9143  -2.5438  -2.4548  -0.7673  -0.6904
    -0.2781   0.6268   0.6774   1.1138   1.5376   1.5911   3.3385   3.7099
     3.9417   4.6887   4.7314   4.8638   5.6630   5.9574   6.1867   6.9542
     9.9418  10.7317  11.2208  11.9871  12.9520  13.4583

     occupation numbers 
     1.0000   1.0000   1.0000   1.0000   1.0000   1.0000   1.0000   1.0000
     1.0000   1.0000   1.0000   1.0000   1.0000   1.0000   1.0000   1.0000
     1.0000   1.0000   1.0000   1.0000   1.0000   1.0000   1.0000   1.0000
     0.9113   0.0005   0.0000   0.0000   0.0000   0.0000

          k = 0.0000 0.2233-0.0723 (  9697 PWs)   bands (ev):

   -10.3761  -9.6097  -6.0364  -2.7232  -2.6087  -1.9253  -0.7682  -0.6466
    -0.4245   0.1686   0.4200   0.8545   1.5769   1.5988   1.9396   4.0259
     4.4031   4.6747   4.7441   4.8258   5.4569   5.9850   6.4203   7.2564
    10.8279  11.1502  11.8340  12.5215  13.3668  13.4273

     occupation numbers 
     1.0000   1.0000   1.0000   1.0000   1.0000   1.0000   1.0000   1.0000
     1.0000   1.0000   1.0000   1.0000   1.0000   1.0000   1.0000   1.0000
     1.0000   1.0000   1.0000   1.0000   1.0000   1.0000   1.0000   1.0000
     0.0001   0.0000   0.0000   0.0000   0.0000   0.0000

          k = 0.0000 0.2233 0.1742 (  9709 PWs)   bands (ev):

   -10.3425  -9.6409  -5.9835  -2.9193  -2.4386  -2.2930  -0.9555  -0.6922
    -0.4714   0.4250   0.8534   0.9852   1.4021   1.7321   1.9803   4.1432
     4.3872   4.4025   4.8517   5.1018   5.7589   5.9339   6.3984   6.8171
    10.7078  11.4843  11.6569  12.4874  12.7605  13.2756

     occupation numbers 
     1.0000   1.0000   1.0000   1.0000   1.0000   1.0000   1.0000   1.0000
     1.0000   1.0000   1.0000   1.0000   1.0000   1.0000   1.0000   1.0000
     1.0000   1.0000   1.0000   1.0000   1.0000   1.0000   1.0000   1.0000
     0.0008   0.0000   0.0000   0.0000   0.0000   0.0000

          k = 0.0000 0.2233 0.4207 (  9715 PWs)   bands (ev):

   -10.2053  -9.7447  -6.0953  -3.0563  -2.8238  -2.4162  -1.0464  -0.3039
    -0.0188   0.5380   0.7677   1.0649   1.4795   1.8990   3.2118   3.6045
     3.9164   4.5638   4.8169   5.2059   5.4689   5.8232   6.4482   6.6149
    10.2927  10.8997  11.5787  11.8914  12.3205  13.1340

     occupation numbers 
     1.0000   1.0000   1.0000   1.0000   1.0000   1.0000   1.0000   1.0000
     1.0000   1.0000   1.0000   1.0000   1.0000   1.0000   1.0000   1.0000
     1.0000   1.0000   1.0000   1.0000   1.0000   1.0000   1.0000   1.0000
     0.1593   0.0000   0.0000   0.0000   0.0000   0.0000

          k = 0.0000 0.2233-0.5653 (  9710 PWs)   bands (ev):

   -10.1507  -9.7796  -6.2192  -3.0841  -2.7161  -2.5650  -0.7419  -0.4037
     0.0307   0.4194   0.9920   1.4874   1.6292   1.8518   2.8778   3.3983
     3.5019   4.7213   4.8975   5.0892   5.6263   6.0116   6.1845   6.6383
     9.8892  10.8256  11.3758  11.8165  12.3781  13.0429

     occupation numbers 
     1.0000   1.0000   1.0000   1.0000   1.0000   1.0000   1.0000   1.0000
     1.0000   1.0000   1.0000   1.0000   1.0000   1.0000   1.0000   1.0000
     1.0000   1.0000   1.0000   1.0000   1.0000   1.0000   1.0000   1.0000
     0.9937   0.0001   0.0000   0.0000   0.0000   0.0000

          k = 0.0000 0.2233-0.3188 (  9721 PWs)   bands (ev):

   -10.2800  -9.6744  -6.1698  -2.9620  -2.6208  -2.2472  -0.8807  -0.0580
     0.0397   0.2635   0.4042   1.0579   1.3710   1.8302   2.4377   3.8052
     3.9472   4.5711   4.6648   5.0920   5.2117   6.0794   6.4838   6.8888
    10.1072  11.1910  11.6504  12.3704  13.1161  13.1947

     occupation numbers 
     1.0000   1.0000   1.0000   1.0000   1.0000   1.0000   1.0000   1.0000
     1.0000   1.0000   1.0000   1.0000   1.0000   1.0000   1.0000   1.0000
     1.0000   1.0000   1.0000   1.0000   1.0000   1.0000   1.0000   1.0000
     0.5287   0.0000   0.0000   0.0000   0.0000   0.0000

          k = 0.0000 0.4467-0.1446 (  9705 PWs)   bands (ev):

   -10.2577  -9.6945  -6.2385  -2.8094  -2.6818  -2.1002  -0.7572  -0.7003
    -0.2643   0.5651   0.8589   1.1429   1.3082   1.6709   3.1906   3.4324
     4.0365   4.4511   4.7439   4.8468   5.3567   5.7864   6.2185   7.2380
     9.8892  10.1944  11.3720  11.6744  13.2857  13.8818

     occupation numbers 
     1.0000   1.0000   1.0000   1.0000   1.0000   1.0000   1.0000   1.0000
     1.0000   1.0000   1.0000   1.0000   1.0000   1.0000   1.0000   1.0000
     1.0000   1.0000   1.0000   1.0000   1.0000   1.0000   1.0000   1.0000
     0.9937   0.3268   0.0000   0.0000   0.0000   0.0000

          k = 0.0000 0.4467 0.1019 (  9691 PWs)   bands (ev):

   -10.2350  -9.7208  -6.1261  -3.0597  -2.7117  -2.3466  -0.9884  -0.3716
     0.0010   0.4213   0.8457   1.2488   1.5378   1.8653   2.8255   3.5482
     3.8701   4.3709   5.0427   5.1802   5.3787   5.6675   6.3582   6.8395
    10.1642  10.6236  11.4957  11.9766  12.6663  13.2544

     occupation numbers 
     1.0000   1.0000   1.0000   1.0000   1.0000   1.0000   1.0000   1.0000
     1.0000   1.0000   1.0000   1.0000   1.0000   1.0000   1.0000   1.0000
     1.0000   1.0000   1.0000   1.0000   1.0000   1.0000   1.0000   1.0000
     0.3925   0.0032   0.0000   0.0000   0.0000   0.0000

          k = 0.0000 0.4467 0.3484 (  9708 PWs)   bands (ev):

   -10.1234  -9.8219  -6.0276  -3.4101  -3.1787  -2.0823  -1.4543   0.1468
     0.4432   0.6654   1.0635   1.0672   1.8522   2.2961   2.6645   2.8817
     3.9419   4.4578   4.7168   5.1606   5.6399   5.7134   6.2758   6.8604
    10.6158  11.0988  11.1420  11.3163  12.3705  13.0411

     occupation numbers 
     1.0000   1.0000   1.0000   1.0000   1.0000   1.0000   1.0000   1.0000
     1.0000   1.0000   1.0000   1.0000   1.0000   1.0000   1.0000   1.0000
     1.0000   1.0000   1.0000   1.0000   1.0000   1.0000   1.0000   1.0000
     0.0037   0.0000   0.0000   0.0000   0.0000   0.0000

          k = 0.0000 0.4467-0.6375 (  9724 PWs)   bands (ev):

   -10.0750  -9.8573  -6.1186  -3.4096  -3.0916  -2.2535  -1.2429  -0.0657
     0.5781   0.8174   1.1123   1.2682   1.7844   2.2969   2.6109   2.9324
     3.5516   4.5686   4.9490   5.1537   5.3431   5.7139   6.3478   6.7726
    10.4154  10.8286  11.0536  11.4289  12.6611  12.7559

     occupation numbers 
     1.0000   1.0000   1.0000   1.0000   1.0000   1.0000   1.0000   1.0000
     1.0000   1.0000   1.0000   1.0000   1.0000   1.0000   1.0000   1.0000
     1.0000   1.0000   1.0000   1.0000   1.0000   1.0000   1.0000   1.0000
     0.0493   0.0001   0.0000   0.0000   0.0000   0.0000

          k = 0.0000 0.4467-0.3911 (  9712 PWs)   bands (ev):

   -10.1849  -9.7518  -6.2443  -3.0192  -2.7744  -2.4035  -0.7814  -0.3723
     0.0748   0.4935   0.9994   1.4115   1.5959   1.9283   2.8902   3.1723
     3.4272   4.7111   4.8142   5.0597   5.4713   5.8597   6.1359   6.8795
     9.8386  10.4595  11.2252  11.9717  12.6035  13.1766

     occupation numbers 
     1.0000   1.0000   1.0000   1.0000   1.0000   1.0000   1.0000   1.0000
     1.0000   1.0000   1.0000   1.0000   1.0000   1.0000   1.0000   1.0000
     1.0000   1.0000   1.0000   1.0000   1.0000   1.0000   1.0000   1.0000
     1.0466   0.0299   0.0000   0.0000   0.0000   0.0000

          k = 0.2000-0.0994-0.0723 (  9697 PWs)   bands (ev):

   -10.3750  -9.6114  -6.0340  -2.7238  -2.6124  -1.9227  -0.7764  -0.6663
    -0.4044   0.1806   0.4129   0.8777   1.5516   1.5949   1.9459   4.0347
     4.4036   4.6638   4.7350   4.8529   5.4603   5.9629   6.4329   7.2407
    10.8396  11.1387  11.8367  12.5438  13.3468  13.4285

     occupation numbers 
     1.0000   1.0000   1.0000   1.0000   1.0000   1.0000   1.0000   1.0000
     1.0000   1.0000   1.0000   1.0000   1.0000   1.0000   1.0000   1.0000
     1.0000   1.0000   1.0000   1.0000   1.0000   1.0000   1.0000   1.0000
     0.0001   0.0000   0.0000   0.0000   0.0000   0.0000

          k = 0.2000-0.0994 0.1742 (  9709 PWs)   bands (ev):

   -10.3420  -9.6414  -5.9853  -2.8982  -2.4645  -2.2879  -0.9378  -0.7084
    -0.4621   0.4101   0.8348   0.9998   1.4178   1.7417   1.9635   4.1452
     4.3742   4.4009   4.8463   5.1128   5.7548   5.9439   6.4174   6.8001
    10.7040  11.4912  11.6591  12.4899  12.7595  13.2822

     occupation numbers 
     1.0000   1.0000   1.0000   1.0000   1.0000   1.0000   1.0000   1.0000
     1.0000   1.0000   1.0000   1.0000   1.0000   1.0000   1.0000   1.0000
     1.0000   1.0000   1.0000   1.0000   1.0000   1.0000   1.0000   1.0000
     0.0009   0.0000   0.0000   0.0000   0.0000   0.0000

          k = 0.2000-0.0994 0.4207 (  9715 PWs)   bands (ev):

   -10.2050  -9.7449  -6.0981  -3.0475  -2.8222  -2.4226  -1.0318  -0.3076
    -0.0244   0.5515   0.7397   1.0720   1.4522   1.9304   3.2134   3.5735
     3.9239   4.5634   4.8196   5.2188   5.4704   5.8327   6.4454   6.6135
    10.2867  10.9078  11.5637  11.8973  12.3157  13.1355

     occupation numbers 
     1.0000   1.0000   1.0000   1.0000   1.0000   1.0000   1.0000   1.0000
     1.0000   1.0000   1.0000   1.0000   1.0000   1.0000   1.0000   1.0000
     1.0000   1.0000   1.0000   1.0000   1.0000   1.0000   1.0000   1.0000
     0.1674   0.0000   0.0000   0.0000   0.0000   0.0000

          k = 0.2000-0.0994-0.5653 (  9710 PWs)   bands (ev):

   -10.1491  -9.7815  -6.2188  -3.0934  -2.7051  -2.5622  -0.7538  -0.3796
     0.0158   0.4130   0.9875   1.5176   1.6140   1.8402   2.8735   3.4092
     3.5048   4.7198   4.8914   5.0952   5.6282   6.0076   6.1865   6.6356
     9.8896  10.8207  11.3718  11.8148  12.3803  13.0623

     occupation numbers 
     1.0000   1.0000   1.0000   1.0000   1.0000   1.0000   1.0000   1.0000
     1.0000   1.0000   1.0000   1.0000   1.0000   1.0000   1.0000   1.0000
     1.0000   1.0000   1.0000   1.0000   1.0000   1.0000   1.0000   1.0000
     0.9931   0.0001   0.0000   0.0000   0.0000   0.0000

          k = 0.2000-0.0994-0.3188 (  9721 PWs)   bands (ev):

   -10.2784  -9.6769  -6.1665  -2.9763  -2.6162  -2.2358  -0.8926  -0.0653
     0.0359   0.2716   0.4069   1.0639   1.3878   1.8283   2.4157   3.8337
     3.9477   4.5722   4.6665   5.0849   5.2019   6.0695   6.4996   6.8685
    10.1145  11.1824  11.6487  12.4006  13.1000  13.2004

     occupation numbers 
     1.0000   1.0000   1.0000   1.0000   1.0000   1.0000   1.0000   1.0000
     1.0000   1.0000   1.0000   1.0000   1.0000   1.0000   1.0000   1.0000
     1.0000   1.0000   1.0000   1.0000   1.0000   1.0000   1.0000   1.0000
     0.5105   0.0000   0.0000   0.0000   0.0000   0.0000

          k = 0.2000 0.1239-0.1446 (  9706 PWs)   bands (ev):

   -10.3471  -9.6373  -5.9836  -3.0742  -2.7133  -1.8304  -0.8633  -0.6218
    -0.4360   0.5565   0.8314   0.8849   1.2873   1.6553   2.0762   4.0794
     4.3783   4.4075   4.8302   5.1139   5.6345   5.7708   6.1512   7.0490
    10.6520  11.5934  11.6546  12.6050  12.6648  13.5159

     occupation numbers 
     1.0000   1.0000   1.0000   1.0000   1.0000   1.0000   1.0000   1.0000
     1.0000   1.0000   1.0000   1.0000   1.0000   1.0000   1.0000   1.0000
     1.0000   1.0000   1.0000   1.0000   1.0000   1.0000   1.0000   1.0000
     0.0021   0.0000   0.0000   0.0000   0.0000   0.0000

          k = 0.2000 0.1239 0.1019 (  9710 PWs)   bands (ev):

   -10.3547  -9.6471  -5.8220  -2.7139  -2.6540  -2.3066  -1.2188  -1.1880
    -0.5114   0.6278   0.8347   1.1579   1.5106   1.6117   2.1372   3.9357
     4.6073   4.7418   5.3683   5.4176   5.7192   5.9914   6.0880   6.4886
    11.0067  11.3621  11.3926  12.4115  12.6957  12.8315

     occupation numbers 
     1.0000   1.0000   1.0000   1.0000   1.0000   1.0000   1.0000   1.0000
     1.0000   1.0000   1.0000   1.0000   1.0000   1.0000   1.0000   1.0000
     1.0000   1.0000   1.0000   1.0000   1.0000   1.0000   1.0000   1.0000
     0.0000   0.0000   0.0000   0.0000   0.0000   0.0000

          k = 0.2000 0.1239 0.3484 (  9721 PWs)   bands (ev):

   -10.2365  -9.7397  -5.9001  -2.9841  -2.7155  -2.6150  -1.1913  -0.6224
    -0.4157   0.3925   0.6232   1.2249   1.8183   1.9111   3.0256   4.2911
     4.4148   4.4451   5.0946   5.3982   5.4191   6.0215   6.2625   6.3115
    10.6885  10.7975  11.1130  11.8265  12.3798  12.6747

     occupation numbers 
     1.0000   1.0000   1.0000   1.0000   1.0000   1.0000   1.0000   1.0000
     1.0000   1.0000   1.0000   1.0000   1.0000   1.0000   1.0000   1.0000
     1.0000   1.0000   1.0000   1.0000   1.0000   1.0000   1.0000   1.0000
     0.0012   0.0002   0.0000   0.0000   0.0000   0.0000

          k = 0.2000 0.1239-0.6375 (  9744 PWs)   bands (ev):

   -10.1254  -9.8145  -6.1229  -3.0890  -3.0693  -2.4443  -0.6217  -0.3455
    -0.2906   0.8405   1.0406   1.1349   1.4575   1.7626   3.0869   3.4742
     3.8975   4.8953   5.0237   5.1955   5.5788   6.1307   6.1602   6.3217
    10.1056  10.5734  10.9466  12.0773  12.1459  12.5995

     occupation numbers 
     1.0000   1.0000   1.0000   1.0000   1.0000   1.0000   1.0000   1.0000
     1.0000   1.0000   1.0000   1.0000   1.0000   1.0000   1.0000   1.0000
     1.0000   1.0000   1.0000   1.0000   1.0000   1.0000   1.0000   1.0000
     0.5326   0.0068   0.0000   0.0000   0.0000   0.0000

          k = 0.2000 0.1239-0.3911 (  9721 PWs)   bands (ev):

   -10.2253  -9.7203  -6.1609  -3.2276  -2.8988  -2.1114  -0.7823  -0.1021
     0.2564   0.4744   0.9378   1.1249   1.4977   1.5469   2.3885   3.3116
     3.9164   4.6896   4.7885   5.1434   5.6940   5.8698   6.2064   6.6755
    10.0542  11.2779  11.3326  12.3745  12.6623  12.8574

     occupation numbers 
     1.0000   1.0000   1.0000   1.0000   1.0000   1.0000   1.0000   1.0000
     1.0000   1.0000   1.0000   1.0000   1.0000   1.0000   1.0000   1.0000
     1.0000   1.0000   1.0000   1.0000   1.0000   1.0000   1.0000   1.0000
     0.6615   0.0000   0.0000   0.0000   0.0000   0.0000

          k = 0.2000 0.3473-0.2169 (  9707 PWs)   bands (ev):

   -10.2372  -9.7186  -6.1275  -3.1150  -3.0481  -1.9212  -0.9021  -0.2381
    -0.0462   0.4914   0.8424   1.2083   1.4163   1.8827   2.8825   3.4795
     3.9492   4.4170   4.8432   5.1587   5.3856   5.4772   6.1552   6.9877
    10.1554  10.6273  11.3750  12.0407  12.3544  13.3379

     occupation numbers 
     1.0000   1.0000   1.0000   1.0000   1.0000   1.0000   1.0000   1.0000
     1.0000   1.0000   1.0000   1.0000   1.0000   1.0000   1.0000   1.0000
     1.0000   1.0000   1.0000   1.0000   1.0000   1.0000   1.0000   1.0000
     0.4125   0.0031   0.0000   0.0000   0.0000   0.0000

          k = 0.2000 0.3473 0.0296 (  9696 PWs)   bands (ev):

   -10.2618  -9.7196  -5.9242  -2.9205  -2.8614  -2.4470  -1.1699  -0.6351
    -0.2947   0.4877   0.6794   1.2297   1.7267   2.1057   2.5866   4.0750
     4.2286   4.5303   5.1137   5.3663   5.4361   5.9448   6.1882   6.4707
    10.2365  10.8878  11.1629  11.8795  12.6567  12.8446

     occupation numbers 
     1.0000   1.0000   1.0000   1.0000   1.0000   1.0000   1.0000   1.0000
     1.0000   1.0000   1.0000   1.0000   1.0000   1.0000   1.0000   1.0000
     1.0000   1.0000   1.0000   1.0000   1.0000   1.0000   1.0000   1.0000
     0.2459   0.0000   0.0000   0.0000   0.0000   0.0000

          k = 0.2000 0.3473 0.2761 (  9711 PWs)   bands (ev):

   -10.1765  -9.8004  -5.8168  -3.3061  -2.9594  -2.4327  -0.9587  -0.8191
    -0.7524   0.6697   1.1195   1.5249   1.8977   2.1578   2.7237   4.0514
     4.3972   4.4420   4.7472   5.5468   5.6065   5.9544   6.0858   6.7152
    10.2758  10.7217  11.1095  11.7326  11.8596  12.5950

     occupation numbers 
     1.0000   1.0000   1.0000   1.0000   1.0000   1.0000   1.0000   1.0000
     1.0000   1.0000   1.0000   1.0000   1.0000   1.0000   1.0000   1.0000
     1.0000   1.0000   1.0000   1.0000   1.0000   1.0000   1.0000   1.0000
     0.1827   0.0007   0.0000   0.0000   0.0000   0.0000

          k = 0.2000 0.3473-0.7098 (  9739 PWs)   bands (ev):

   -10.0540  -9.8932  -5.9903  -3.5622  -2.7985  -2.6671  -0.7694  -0.4119
     0.0787   0.4954   1.1495   1.2986   1.9488   2.1501   3.1186   3.1977
     3.9289   4.5056   5.0266   5.4147   5.6199   5.7180   6.0222   6.7375
    10.4823  10.6351  11.0813  11.5422  11.7130  12.2928

     occupation numbers 
     1.0000   1.0000   1.0000   1.0000   1.0000   1.0000   1.0000   1.0000
     1.0000   1.0000   1.0000   1.0000   1.0000   1.0000   1.0000   1.0000
     1.0000   1.0000   1.0000   1.0000   1.0000   1.0000   1.0000   1.0000
     0.0227   0.0027   0.0000   0.0000   0.0000   0.0000

          k = 0.2000 0.3473-0.4634 (  9725 PWs)   bands (ev):

   -10.1303  -9.8029  -6.1783  -3.4309  -2.9907  -2.2039  -0.7697  -0.1907
     0.5584   0.6127   1.0233   1.3837   1.5679   2.3884   2.4127   2.7971
     3.5330   4.5457   4.9508   5.2492   5.6104   5.8519   6.0065   6.5781
    10.1250  10.8983  11.4510  11.5014  11.9918  12.6220

     occupation numbers 
     1.0000   1.0000   1.0000   1.0000   1.0000   1.0000   1.0000   1.0000
     1.0000   1.0000   1.0000   1.0000   1.0000   1.0000   1.0000   1.0000
     1.0000   1.0000   1.0000   1.0000   1.0000   1.0000   1.0000   1.0000
     0.4847   0.0000   0.0000   0.0000   0.0000   0.0000

          k = 0.2000-0.5461 0.0723 (  9710 PWs)   bands (ev):

   -10.1965  -9.7424  -6.2604  -3.1420  -2.8229  -2.0569  -0.6720  -0.3887
    -0.0343   0.4343   1.0084   1.3639   1.4899   1.9349   2.8940   3.2057
     3.5563   4.7033   4.8741   5.0439   5.4529   5.6773   5.9610   6.9231
     9.8293  10.2638  11.1540  11.9419  12.5503  13.1947

     occupation numbers 
     1.0000   1.0000   1.0000   1.0000   1.0000   1.0000   1.0000   1.0000
     1.0000   1.0000   1.0000   1.0000   1.0000   1.0000   1.0000   1.0000
     1.0000   1.0000   1.0000   1.0000   1.0000   1.0000   1.0000   1.0000
     1.0535   0.2008   0.0000   0.0000   0.0000   0.0000

          k = 0.2000-0.5461 0.3188 (  9710 PWs)   bands (ev):

   -10.1718  -9.7764  -6.1509  -3.0491  -2.7234  -2.6677  -0.6370  -0.3930
    -0.2621   0.9604   0.9834   1.1415   1.4953   1.9274   2.8984   3.1202
     3.9809   4.7276   5.0211   5.1288   5.5869   5.8269   6.2949   6.4946
    10.0156  10.1447  10.7913  12.1175  12.4361  12.8628

     occupation numbers 
     1.0000   1.0000   1.0000   1.0000   1.0000   1.0000   1.0000   1.0000
     1.0000   1.0000   1.0000   1.0000   1.0000   1.0000   1.0000   1.0000
     1.0000   1.0000   1.0000   1.0000   1.0000   1.0000   1.0000   1.0000
     0.7551   0.4374   0.0002   0.0000   0.0000   0.0000

          k = 0.2000-0.5461 0.5653 (  9714 PWs)   bands (ev):

   -10.0783  -9.8720  -5.9931  -3.3873  -2.9640  -2.6182  -0.7958  -0.4843
     0.0847   0.2321   1.2390   1.5391   1.9722   2.5452   2.7430   3.1095
     3.8523   4.6203   4.8203   5.3997   5.6190   5.8251   6.1159   6.6970
    10.1476  10.6369  11.1436  11.5027  12.0807  12.1047

     occupation numbers 
     1.0000   1.0000   1.0000   1.0000   1.0000   1.0000   1.0000   1.0000
     1.0000   1.0000   1.0000   1.0000   1.0000   1.0000   1.0000   1.0000
     1.0000   1.0000   1.0000   1.0000   1.0000   1.0000   1.0000   1.0000
     0.4307   0.0026   0.0000   0.0000   0.0000   0.0000

          k = 0.2000-0.5461-0.4207 (  9714 PWs)   bands (ev):

   -10.0337  -9.9104  -6.0048  -3.4995  -3.1695  -2.3639  -1.0149  -0.1893
     0.1192   0.8041   1.2854   1.3584   2.1172   2.2631   2.5728   2.7598
     3.9648   4.5078   5.0065   5.1819   5.6231   5.8472   6.0708   6.7667
    10.5160  10.6900  11.2716  11.3406  11.7701  12.6079

     occupation numbers 
     1.0000   1.0000   1.0000   1.0000   1.0000   1.0000   1.0000   1.0000
     1.0000   1.0000   1.0000   1.0000   1.0000   1.0000   1.0000   1.0000
     1.0000   1.0000   1.0000   1.0000   1.0000   1.0000   1.0000   1.0000
     0.0149   0.0011   0.0000   0.0000   0.0000   0.0000

          k = 0.2000-0.5461-0.1742 (  9712 PWs)   bands (ev):

   -10.1416  -9.7946  -6.1855  -3.4175  -2.7296  -2.3979  -0.8585  -0.2138
     0.5065   0.6662   0.9386   1.3715   1.5948   2.3782   2.5859   2.6379
     3.5523   4.5740   5.0579   5.3447   5.4197   5.8800   6.0908   6.5140
    10.1322  10.7602  11.2554  11.6394  12.0480  12.7773

     occupation numbers 
     1.0000   1.0000   1.0000   1.0000   1.0000   1.0000   1.0000   1.0000
     1.0000   1.0000   1.0000   1.0000   1.0000   1.0000   1.0000   1.0000
     1.0000   1.0000   1.0000   1.0000   1.0000   1.0000   1.0000   1.0000
     0.4674   0.0003   0.0000   0.0000   0.0000   0.0000

          k = 0.2000-0.3227 0.0000 (  9685 PWs)   bands (ev):

   -10.2957  -9.6636  -6.1948  -2.9390  -2.5931  -2.0339  -0.8090  -0.2283
    -0.0097   0.2727   0.3413   0.8958   1.4516   1.8469   2.3450   3.8951
     3.9527   4.6003   4.7052   4.9723   5.3913   5.9139   6.2223   7.0660
    10.0166  10.9394  11.6222  12.4239  12.8955  13.3821

     occupation numbers 
     1.0000   1.0000   1.0000   1.0000   1.0000   1.0000   1.0000   1.0000
     1.0000   1.0000   1.0000   1.0000   1.0000   1.0000   1.0000   1.0000
     1.0000   1.0000   1.0000   1.0000   1.0000   1.0000   1.0000   1.0000
     0.7529   0.0000   0.0000   0.0000   0.0000   0.0000

          k = 0.2000-0.3227 0.2465 (  9703 PWs)   bands (ev):

   -10.2389  -9.7109  -6.1772  -3.0651  -2.5967  -2.4379  -0.9590  -0.1398
     0.2494   0.4682   0.9596   1.0905   1.5061   1.6060   2.3264   3.2401
     3.9015   4.6970   4.7896   5.1967   5.7749   6.0281   6.2411   6.6099
    10.0265  10.9151  11.2236  12.5255  12.8149  12.8607

     occupation numbers 
     1.0000   1.0000   1.0000   1.0000   1.0000   1.0000   1.0000   1.0000
     1.0000   1.0000   1.0000   1.0000   1.0000   1.0000   1.0000   1.0000
     1.0000   1.0000   1.0000   1.0000   1.0000   1.0000   1.0000   1.0000
     0.7293   0.0000   0.0000   0.0000   0.0000   0.0000

          k = 0.2000-0.3227 0.4930 (  9702 PWs)   bands (ev):

   -10.1142  -9.8185  -6.1599  -3.2026  -2.9516  -2.5359  -0.9475  -0.1885
     0.4832   0.6068   0.8499   1.5234   1.6706   2.2727   2.5376   2.9502
     3.4949   4.7258   4.9042   5.3126   5.7329   5.9255   6.2422   6.3463
    10.1055  11.0052  11.3512  11.5447  12.1189  12.6471

     occupation numbers 
     1.0000   1.0000   1.0000   1.0000   1.0000   1.0000   1.0000   1.0000
     1.0000   1.0000   1.0000   1.0000   1.0000   1.0000   1.0000   1.0000
     1.0000   1.0000   1.0000   1.0000   1.0000   1.0000   1.0000   1.0000
     0.5328   0.0000   0.0000   0.0000   0.0000   0.0000

          k = 0.2000-0.3227-0.4930 (  9702 PWs)   bands (ev):

   -10.1125  -9.8208  -6.1569  -3.2089  -2.9531  -2.5294  -0.9666  -0.1619
     0.4525   0.6088   0.8467   1.5460   1.6865   2.2678   2.5431   2.9484
     3.4954   4.7247   4.9058   5.3012   5.7305   5.9155   6.2462   6.3446
    10.1112  10.9945  11.3628  11.5552  12.1056  12.6484

     occupation numbers 
     1.0000   1.0000   1.0000   1.0000   1.0000   1.0000   1.0000   1.0000
     1.0000   1.0000   1.0000   1.0000   1.0000   1.0000   1.0000   1.0000
     1.0000   1.0000   1.0000   1.0000   1.0000   1.0000   1.0000   1.0000
     0.5187   0.0000   0.0000   0.0000   0.0000   0.0000

          k = 0.2000-0.3227-0.2465 (  9703 PWs)   bands (ev):

   -10.2375  -9.7132  -6.1724  -3.0795  -2.5881  -2.4356  -0.9739  -0.1705
     0.2617   0.5001   0.9842   1.0786   1.5132   1.5923   2.3248   3.2593
     3.9036   4.6901   4.7872   5.2017   5.7614   6.0152   6.2399   6.6060
    10.0322  10.9040  11.2404  12.5259  12.8086  12.8883

     occupation numbers 
     1.0000   1.0000   1.0000   1.0000   1.0000   1.0000   1.0000   1.0000
     1.0000   1.0000   1.0000   1.0000   1.0000   1.0000   1.0000   1.0000
     1.0000   1.0000   1.0000   1.0000   1.0000   1.0000   1.0000   1.0000
     0.7157   0.0000   0.0000   0.0000   0.0000   0.0000

          k = 0.4000-0.1988-0.1446 (  9705 PWs)   bands (ev):

   -10.2536  -9.7005  -6.2327  -2.8138  -2.6883  -2.0902  -0.7692  -0.7226
    -0.2565   0.5947   0.8573   1.1633   1.3063   1.6501   3.1994   3.4356
     4.0377   4.4539   4.7245   4.8559   5.3651   5.8005   6.1902   7.2183
     9.9039  10.1765  11.3877  11.6982  13.2806  13.8836

     occupation numbers 
     1.0000   1.0000   1.0000   1.0000   1.0000   1.0000   1.0000   1.0000
     1.0000   1.0000   1.0000   1.0000   1.0000   1.0000   1.0000   1.0000
     1.0000   1.0000   1.0000   1.0000   1.0000   1.0000   1.0000   1.0000
     0.9735   0.3650   0.0000   0.0000   0.0000   0.0000

          k = 0.4000-0.1988 0.1019 (  9691 PWs)   bands (ev):

   -10.2320  -9.7249  -6.1250  -3.0517  -2.7201  -2.3446  -0.9751  -0.3874
    -0.0175   0.4310   0.8596   1.2664   1.5213   1.8579   2.8279   3.5361
     3.8692   4.3754   5.0592   5.1814   5.3808   5.6727   6.3492   6.8234
    10.1658  10.6209  11.5122  11.9778  12.6433  13.2817

     occupation numbers 
     1.0000   1.0000   1.0000   1.0000   1.0000   1.0000   1.0000   1.0000
     1.0000   1.0000   1.0000   1.0000   1.0000   1.0000   1.0000   1.0000
     1.0000   1.0000   1.0000   1.0000   1.0000   1.0000   1.0000   1.0000
     0.3889   0.0034   0.0000   0.0000   0.0000   0.0000

          k = 0.4000-0.1988 0.3484 (  9708 PWs)   bands (ev):

   -10.1208  -9.8247  -6.0321  -3.4091  -3.1676  -2.0900  -1.4368   0.1741
     0.4258   0.6222   1.0552   1.0814   1.8618   2.2926   2.6499   2.8751
     3.9443   4.4633   4.7171   5.1617   5.6460   5.7385   6.2677   6.8571
    10.6168  11.0800  11.1488  11.3211  12.3481  13.0527

     occupation numbers 
     1.0000   1.0000   1.0000   1.0000   1.0000   1.0000   1.0000   1.0000
     1.0000   1.0000   1.0000   1.0000   1.0000   1.0000   1.0000   1.0000
     1.0000   1.0000   1.0000   1.0000   1.0000   1.0000   1.0000   1.0000
     0.0036   0.0000   0.0000   0.0000   0.0000   0.0000

          k = 0.4000-0.1988-0.6375 (  9724 PWs)   bands (ev):

   -10.0698  -9.8629  -6.1207  -3.4148  -3.0789  -2.2545  -1.2271  -0.0789
     0.5802   0.8270   1.0877   1.2570   1.7977   2.2944   2.5968   2.9306
     3.5600   4.5778   4.9448   5.1545   5.3604   5.7144   6.3414   6.7722
    10.4055  10.8273  11.0549  11.4236  12.6732  12.7679

     occupation numbers 
     1.0000   1.0000   1.0000   1.0000   1.0000   1.0000   1.0000   1.0000
     1.0000   1.0000   1.0000   1.0000   1.0000   1.0000   1.0000   1.0000
     1.0000   1.0000   1.0000   1.0000   1.0000   1.0000   1.0000   1.0000
     0.0548   0.0001   0.0000   0.0000   0.0000   0.0000

          k = 0.4000-0.1988-0.3911 (  9712 PWs)   bands (ev):

   -10.1801  -9.7582  -6.2403  -3.0266  -2.7815  -2.3861  -0.7952  -0.3551
     0.0438   0.5111   0.9855   1.4251   1.5957   1.9391   2.9023   3.1650
     3.4265   4.7109   4.8051   5.0666   5.4737   5.8686   6.1223   6.8625
     9.8437  10.4498  11.2442  11.9823  12.5961  13.1834

     occupation numbers 
     1.0000   1.0000   1.0000   1.0000   1.0000   1.0000   1.0000   1.0000
     1.0000   1.0000   1.0000   1.0000   1.0000   1.0000   1.0000   1.0000
     1.0000   1.0000   1.0000   1.0000   1.0000   1.0000   1.0000   1.0000
     1.0424   0.0335   0.0000   0.0000   0.0000   0.0000

          k = 0.4000 0.0246-0.2169 (  9707 PWs)   bands (ev):

   -10.2345  -9.7226  -6.1237  -3.1175  -3.0500  -1.9200  -0.9030  -0.2560
    -0.0499   0.4939   0.8699   1.2282   1.4161   1.8565   2.8750   3.4974
     3.9446   4.4197   4.8546   5.1601   5.3866   5.4615   6.1479   6.9769
    10.1539  10.6365  11.3951  12.0433  12.3333  13.3864

     occupation numbers 
     1.0000   1.0000   1.0000   1.0000   1.0000   1.0000   1.0000   1.0000
     1.0000   1.0000   1.0000   1.0000   1.0000   1.0000   1.0000   1.0000
     1.0000   1.0000   1.0000   1.0000   1.0000   1.0000   1.0000   1.0000
     0.4160   0.0027   0.0000   0.0000   0.0000   0.0000

          k = 0.4000 0.0246 0.0296 (  9696 PWs)   bands (ev):

   -10.2595  -9.7229  -5.9215  -2.9192  -2.8507  -2.4619  -1.1881  -0.6446
    -0.2584   0.4812   0.6755   1.2481   1.7306   2.0765   2.5932   4.0968
     4.2314   4.5087   5.1272   5.3749   5.4445   5.9413   6.1671   6.4542
    10.2246  10.8999  11.1757  11.8916  12.6667  12.8395

     occupation numbers 
     1.0000   1.0000   1.0000   1.0000   1.0000   1.0000   1.0000   1.0000
     1.0000   1.0000   1.0000   1.0000   1.0000   1.0000   1.0000   1.0000
     1.0000   1.0000   1.0000   1.0000   1.0000   1.0000   1.0000   1.0000
     0.2675   0.0000   0.0000   0.0000   0.0000   0.0000

          k = 0.4000 0.0246 0.2761 (  9711 PWs)   bands (ev):

   -10.1747  -9.8025  -5.8187  -3.3062  -2.9373  -2.4553  -0.9724  -0.8119
    -0.7219   0.6411   1.0961   1.5292   1.9159   2.1695   2.7254   4.0244
     4.3988   4.4492   4.7623   5.5375   5.6066   5.9615   6.0926   6.7058
    10.2745  10.7301  11.0988  11.7428  11.8424  12.6150

     occupation numbers 
     1.0000   1.0000   1.0000   1.0000   1.0000   1.0000   1.0000   1.0000
     1.0000   1.0000   1.0000   1.0000   1.0000   1.0000   1.0000   1.0000
     1.0000   1.0000   1.0000   1.0000   1.0000   1.0000   1.0000   1.0000
     0.1846   0.0006   0.0000   0.0000   0.0000   0.0000

          k = 0.4000 0.0246-0.7098 (  9739 PWs)   bands (ev):

   -10.0512  -9.8961  -5.9930  -3.5628  -2.8005  -2.6559  -0.7488  -0.4190
     0.0720   0.4890   1.1516   1.2720   1.9612   2.1476   3.1108   3.1854
     3.9452   4.5100   5.0262   5.4290   5.6265   5.7158   6.0156   6.7381
    10.4853  10.6344  11.0622  11.5425  11.6941  12.3141

     occupation numbers 
     1.0000   1.0000   1.0000   1.0000   1.0000   1.0000   1.0000   1.0000
     1.0000   1.0000   1.0000   1.0000   1.0000   1.0000   1.0000   1.0000
     1.0000   1.0000   1.0000   1.0000   1.0000   1.0000   1.0000   1.0000
     0.0219   0.0028   0.0000   0.0000   0.0000   0.0000

          k = 0.4000 0.0246-0.4634 (  9725 PWs)   bands (ev):

   -10.1274  -9.8064  -6.1776  -3.4340  -2.9937  -2.1905  -0.7786  -0.1703
     0.5454   0.6116   0.9961   1.3968   1.5658   2.3959   2.4232   2.7779
     3.5465   4.5457   4.9577   5.2423   5.6127   5.8510   6.0081   6.5722
    10.1324  10.8949  11.4325  11.5239  11.9814  12.6113

     occupation numbers 
     1.0000   1.0000   1.0000   1.0000   1.0000   1.0000   1.0000   1.0000
     1.0000   1.0000   1.0000   1.0000   1.0000   1.0000   1.0000   1.0000
     1.0000   1.0000   1.0000   1.0000   1.0000   1.0000   1.0000   1.0000
     0.4669   0.0000   0.0000   0.0000   0.0000   0.0000

          k = 0.4000 0.2479-0.2892 (  9699 PWs)   bands (ev):

   -10.1463  -9.8008  -6.0533  -3.4706  -3.4346  -1.6113  -1.2710   0.3288
     0.5358   0.6032   1.0407   1.1035   1.8318   2.1602   2.4014   3.0403
     3.9339   4.4309   4.5517   5.0273   5.4045   5.4998   6.3494   6.7907
    10.4239  10.8709  10.9519  11.5299  12.4212  13.0710

     occupation numbers 
     1.0000   1.0000   1.0000   1.0000   1.0000   1.0000   1.0000   1.0000
     1.0000   1.0000   1.0000   1.0000   1.0000   1.0000   1.0000   1.0000
     1.0000   1.0000   1.0000   1.0000   1.0000   1.0000   1.0000   1.0000
     0.0449   0.0000   0.0000   0.0000   0.0000   0.0000

          k = 0.4000 0.2479-0.0427 (  9712 PWs)   bands (ev):

   -10.1932  -9.7859  -5.8322  -3.3583  -3.1711  -2.1667  -0.8805  -0.7278
    -0.4812   0.6174   1.0882   1.3268   1.9119   2.2337   2.5666   4.0643
     4.3382   4.3591   4.6122   5.6104   5.8507   5.8986   6.0155   6.3853
     9.8917  10.9857  11.2158  11.6779  11.9700  12.5178

     occupation numbers 
     1.0000   1.0000   1.0000   1.0000   1.0000   1.0000   1.0000   1.0000
     1.0000   1.0000   1.0000   1.0000   1.0000   1.0000   1.0000   1.0000
     1.0000   1.0000   1.0000   1.0000   1.0000   1.0000   1.0000   1.0000
     0.9904   0.0000   0.0000   0.0000   0.0000   0.0000

          k = 0.4000 0.2479 0.2038 (  9709 PWs)   bands (ev):

   -10.1526  -9.8426  -5.6365  -3.4008  -2.6961  -2.4502  -1.6304  -1.6055
    -0.1153   0.6480   1.2589   1.6320   1.8574   2.2295   2.8163   4.4061
     4.5828   4.6686   4.7687   4.9485   6.1762   6.2186   6.3929   6.7425
     9.7839  10.2561  10.3096  11.9121  12.0456  12.2352

     occupation numbers 
     1.0000   1.0000   1.0000   1.0000   1.0000   1.0000   1.0000   1.0000
     1.0000   1.0000   1.0000   1.0000   1.0000   1.0000   1.0000   1.0000
     1.0000   1.0000   1.0000   1.0000   1.0000   1.0000   1.0000   1.0000
     1.0763   0.2128   0.1380   0.0000   0.0000   0.0000

          k = 0.4000 0.2479-0.7821 (  9721 PWs)   bands (ev):

   -10.0350  -9.9384  -5.7627  -3.5688  -2.9858  -2.5361  -1.1324  -0.8069
    -0.0589   0.2554   1.1732   1.5261   2.0702   2.4308   2.9464   4.0808
     4.3188   4.5060   4.7094   5.0033   5.8163   6.2205   6.4500   6.7130
    10.0603  10.2385  10.5325  11.5883  11.8012  12.3667

     occupation numbers 
     1.0000   1.0000   1.0000   1.0000   1.0000   1.0000   1.0000   1.0000
     1.0000   1.0000   1.0000   1.0000   1.0000   1.0000   1.0000   1.0000
     1.0000   1.0000   1.0000   1.0000   1.0000   1.0000   1.0000   1.0000
     0.6461   0.2424   0.0120   0.0000   0.0000   0.0000

          k = 0.4000 0.2479-0.5357 (  9709 PWs)   bands (ev):

   -10.0505  -9.8924  -6.0231  -3.5610  -3.4001  -2.0659  -0.7033  -0.0732
     0.0850   0.8076   1.2469   1.3221   2.0937   2.2128   2.3642   2.8827
     3.9234   4.4806   4.7635   5.0800   5.7475   5.8670   6.2451   6.4371
    10.4161  10.7415  11.0645  11.5708  11.7557  12.4851

     occupation numbers 
     1.0000   1.0000   1.0000   1.0000   1.0000   1.0000   1.0000   1.0000
     1.0000   1.0000   1.0000   1.0000   1.0000   1.0000   1.0000   1.0000
     1.0000   1.0000   1.0000   1.0000   1.0000   1.0000   1.0000   1.0000
     0.0489   0.0005   0.0000   0.0000   0.0000   0.0000

          k = 0.4000-0.6454 0.0000 (  9710 PWs)   bands (ev):

   -10.1119  -9.8239  -6.1529  -3.4701  -3.2929  -1.7637  -1.1081  -0.0159
     0.8197   0.8766   0.9909   1.0522   1.7769   2.2458   2.4388   3.0158
     3.6271   4.6276   4.6731   5.1240   5.1754   5.3807   6.4103   6.7128
    10.2730  10.5819  10.8606  11.3132  12.6141  12.8857

     occupation numbers 
     1.0000   1.0000   1.0000   1.0000   1.0000   1.0000   1.0000   1.0000
     1.0000   1.0000   1.0000   1.0000   1.0000   1.0000   1.0000   1.0000
     1.0000   1.0000   1.0000   1.0000   1.0000   1.0000   1.0000   1.0000
     0.1867   0.0060   0.0000   0.0000   0.0000   0.0000

          k = 0.4000-0.6454 0.2465 (  9719 PWs)   bands (ev):

   -10.0977  -9.8532  -6.0150  -3.5600  -3.0389  -2.3353  -0.6139  -0.2823
     0.0409   0.3347   1.1946   1.3411   1.9918   2.2275   2.8214   3.1182
     3.9661   4.5218   4.6815   5.4027   5.6399   5.9661   6.0496   6.4444
    10.0573  10.6055  11.0096  11.7488  11.8191  12.2222

     occupation numbers 
     1.0000   1.0000   1.0000   1.0000   1.0000   1.0000   1.0000   1.0000
     1.0000   1.0000   1.0000   1.0000   1.0000   1.0000   1.0000   1.0000
     1.0000   1.0000   1.0000   1.0000   1.0000   1.0000   1.0000   1.0000
     0.6538   0.0043   0.0000   0.0000   0.0000   0.0000

          k = 0.4000-0.6454 0.4930 (  9711 PWs)   bands (ev):

   -10.0575  -9.9177  -5.7657  -3.5159  -2.8169  -2.7296  -1.1406  -0.8418
    -0.0451   0.0715   1.3920   1.5579   2.1624   2.5173   2.7621   3.9153
     4.4060   4.4531   4.6594   5.0279   5.8936   6.2290   6.4152   6.7365
     9.7793  10.3153  10.6808  11.6057  11.7028  12.3977

     occupation numbers 
     1.0000   1.0000   1.0000   1.0000   1.0000   1.0000   1.0000   1.0000
     1.0000   1.0000   1.0000   1.0000   1.0000   1.0000   1.0000   1.0000
     1.0000   1.0000   1.0000   1.0000   1.0000   1.0000   1.0000   1.0000
     1.0777   0.1313   0.0013   0.0000   0.0000   0.0000

          k = 0.4000-0.6454-0.4930 (  9711 PWs)   bands (ev):

   -10.0549  -9.9207  -5.7634  -3.5139  -2.8393  -2.7110  -1.1586  -0.8350
    -0.0661   0.1045   1.3720   1.5909   2.1536   2.5087   2.7679   3.9399
     4.3857   4.4602   4.6595   5.0152   5.8907   6.2291   6.4122   6.7345
     9.7758  10.3271  10.6751  11.6138  11.7168  12.3788

     occupation numbers 
     1.0000   1.0000   1.0000   1.0000   1.0000   1.0000   1.0000   1.0000
     1.0000   1.0000   1.0000   1.0000   1.0000   1.0000   1.0000   1.0000
     1.0000   1.0000   1.0000   1.0000   1.0000   1.0000   1.0000   1.0000
     1.0786   0.1183   0.0014   0.0000   0.0000   0.0000

          k = 0.4000-0.6454-0.2465 (  9719 PWs)   bands (ev):

   -10.0953  -9.8562  -6.0118  -3.5598  -3.0368  -2.3464  -0.6157  -0.2917
     0.0252   0.3513   1.2031   1.3682   1.9837   2.2349   2.8087   3.1384
     3.9508   4.5181   4.6799   5.3957   5.6456   5.9644   6.0458   6.4366
    10.0508  10.6184  11.0255  11.7507  11.8193  12.2079

     occupation numbers 
     1.0000   1.0000   1.0000   1.0000   1.0000   1.0000   1.0000   1.0000
     1.0000   1.0000   1.0000   1.0000   1.0000   1.0000   1.0000   1.0000
     1.0000   1.0000   1.0000   1.0000   1.0000   1.0000   1.0000   1.0000
     0.6697   0.0035   0.0000   0.0000   0.0000   0.0000

          k = 0.4000-0.4221-0.0723 (  9710 PWs)   bands (ev):

   -10.1932  -9.7470  -6.2568  -3.1428  -2.8281  -2.0527  -0.6722  -0.3976
    -0.0530   0.4631   0.9981   1.3830   1.4719   1.9547   2.9032   3.1934
     3.5566   4.6999   4.8756   5.0369   5.4573   5.6880   5.9490   6.9089
     9.8371  10.2578  11.1756  11.9466  12.5332  13.1893

     occupation numbers 
     1.0000   1.0000   1.0000   1.0000   1.0000   1.0000   1.0000   1.0000
     1.0000   1.0000   1.0000   1.0000   1.0000   1.0000   1.0000   1.0000
     1.0000   1.0000   1.0000   1.0000   1.0000   1.0000   1.0000   1.0000
     1.0478   0.2101   0.0000   0.0000   0.0000   0.0000

          k = 0.4000-0.4221 0.1742 (  9712 PWs)   bands (ev):

   -10.1403  -9.7959  -6.1877  -3.4158  -2.7418  -2.3784  -0.8465  -0.2187
     0.5266   0.6653   0.9139   1.3542   1.5774   2.4001   2.5820   2.6247
     3.5590   4.5742   5.0624   5.3501   5.4316   5.8872   6.0893   6.5049
    10.1381  10.7564  11.2366  11.6501  12.0515  12.7780

     occupation numbers 
     1.0000   1.0000   1.0000   1.0000   1.0000   1.0000   1.0000   1.0000
     1.0000   1.0000   1.0000   1.0000   1.0000   1.0000   1.0000   1.0000
     1.0000   1.0000   1.0000   1.0000   1.0000   1.0000   1.0000   1.0000
     0.4533   0.0004   0.0000   0.0000   0.0000   0.0000

          k = 0.4000-0.4221 0.4207 (  9714 PWs)   bands (ev):

   -10.0327  -9.9112  -6.0095  -3.5030  -3.1531  -2.3720  -0.9956  -0.1607
     0.1040   0.7612   1.2950   1.3421   2.1208   2.2695   2.5558   2.7558
     3.9713   4.5060   5.0197   5.1840   5.6228   5.8702   6.0683   6.7624
    10.5009  10.6982  11.2596  11.3429  11.7649  12.6179

     occupation numbers 
     1.0000   1.0000   1.0000   1.0000   1.0000   1.0000   1.0000   1.0000
     1.0000   1.0000   1.0000   1.0000   1.0000   1.0000   1.0000   1.0000
     1.0000   1.0000   1.0000   1.0000   1.0000   1.0000   1.0000   1.0000
     0.0180   0.0010   0.0000   0.0000   0.0000   0.0000

          k = 0.4000-0.4221-0.5653 (  9714 PWs)   bands (ev):

   -10.0731  -9.8778  -5.9926  -3.3894  -2.9489  -2.6315  -0.7743  -0.4995
     0.0477   0.2564   1.2427   1.5494   1.9598   2.5560   2.7421   3.1036
     3.8531   4.6304   4.8157   5.4064   5.6097   5.8221   6.1197   6.6886
    10.1370  10.6464  11.1518  11.5046  12.0629  12.1164

     occupation numbers 
     1.0000   1.0000   1.0000   1.0000   1.0000   1.0000   1.0000   1.0000
     1.0000   1.0000   1.0000   1.0000   1.0000   1.0000   1.0000   1.0000
     1.0000   1.0000   1.0000   1.0000   1.0000   1.0000   1.0000   1.0000
     0.4558   0.0023   0.0000   0.0000   0.0000   0.0000

          k = 0.4000-0.4221-0.3188 (  9710 PWs)   bands (ev):

   -10.1671  -9.7826  -6.1453  -3.0528  -2.7373  -2.6535  -0.6613  -0.4117
    -0.2526   0.9671   1.0065   1.1724   1.5020   1.9038   2.9099   3.1168
     3.9758   4.7287   5.0075   5.1385   5.5908   5.8421   6.2683   6.4748
    10.0038  10.1522  10.8138  12.1142  12.4550  12.8604

     occupation numbers 
     1.0000   1.0000   1.0000   1.0000   1.0000   1.0000   1.0000   1.0000
     1.0000   1.0000   1.0000   1.0000   1.0000   1.0000   1.0000   1.0000
     1.0000   1.0000   1.0000   1.0000   1.0000   1.0000   1.0000   1.0000
     0.7828   0.4199   0.0001   0.0000   0.0000   0.0000

     the Fermi energy is    10.1606 ev

!    total energy              =    -126.15438642 Ry
     estimated scf accuracy    <          8.4E-11 Ry
     smearing contrib. (-TS)   =      -0.00362574 Ry
     internal energy E=F+TS    =    -126.15076068 Ry

     The total energy is F=E-TS. E is the sum of the following terms:
     one-electron contribution =      15.66493568 Ry
     hartree contribution      =      19.45094380 Ry
     xc contribution           =     -51.94862609 Ry
     ewald contribution        =    -109.31801407 Ry

     convergence has been achieved in  14 iterations

     Forces acting on atoms (cartesian axes, Ry/au):

     atom    1 type  1   force =     0.00927508   -0.00700436    0.01033920
     atom    2 type  1   force =    -0.01342791   -0.01208596   -0.00139096
     atom    3 type  1   force =    -0.00449804    0.01517207    0.01069244
     atom    4 type  1   force =     0.00344943   -0.01134165   -0.00551193
     atom    5 type  1   force =    -0.00887195    0.00617640   -0.01180541
     atom    6 type  1   force =     0.01642918    0.00870108   -0.00114259
     atom    7 type  1   force =     0.00673024    0.00358587   -0.00074786
     atom    8 type  1   force =     0.01013995    0.00172364   -0.00163959
     atom    9 type  1   force =     0.00605244    0.00832703   -0.00212634
     atom   10 type  1   force =    -0.00549129   -0.00457320    0.00518030
     atom   11 type  1   force =    -0.00762434   -0.00447996    0.00050857
     atom   12 type  1   force =    -0.01116424   -0.00337982   -0.00059283
     atom   13 type  1   force =    -0.00516665   -0.00260888   -0.00150677
     atom   14 type  2   force =    -0.02593027   -0.01073179   -0.01004900
     atom   15 type  2   force =     0.03009836    0.01251953    0.00979275
     The non-local contrib.  to forces
     atom    1 type  1   force =    -0.01074751    0.09363666    0.12372629
     atom    2 type  1   force =     0.02234599    0.00631190   -0.10831904
     atom    3 type  1   force =     0.07517456   -0.04204433    0.12224754
     atom    4 type  1   force =    -0.07654527    0.04891768   -0.11546318
     atom    5 type  1   force =     0.00950715   -0.09468861   -0.12915283
     atom    6 type  1   force =    -0.02016491   -0.01337644    0.10522465
     atom    7 type  1   force =     0.20086534    0.02519015   -0.00300363
     atom    8 type  1   force =     0.14539700    0.08305009    0.19066276
     atom    9 type  1   force =     0.11176453    0.17418877   -0.00616195
     atom   10 type  1   force =    -0.11085340   -0.16806338    0.00999269
     atom   11 type  1   force =    -0.20210020   -0.02693912    0.00033996
     atom   12 type  1   force =    -0.14567342   -0.08512373   -0.19292411
     atom   13 type  1   force =    -0.00663964   -0.00245738   -0.00278076
     atom   14 type  2   force =    -0.37798148   -0.23111908   -0.17178952
     atom   15 type  2   force =     0.37337987    0.23230218    0.16703952
     The ionic contribution  to forces
     atom    1 type  1   force =    -0.05957530   -0.00762957    0.22725081
     atom    2 type  1   force =    -0.16521423   -0.13963388   -0.22025800
     atom    3 type  1   force =    -0.06236974   -0.02058986    0.17966860
     atom    4 type  1   force =     0.04257945    0.02623837   -0.17593148
     atom    5 type  1   force =     0.06956083    0.02243464   -0.23077602
     atom    6 type  1   force =     0.17955864    0.12845027    0.20049629
     atom    7 type  1   force =    -1.88949861   -0.22486762   -0.26159772
     atom    8 type  1   force =    -0.81736909   -0.52744374   -1.30514049
     atom    9 type  1   force =    -1.03698162   -1.58103155   -0.27251343
     atom   10 type  1   force =     1.02556558    1.60172266    0.29888823
     atom   11 type  1   force =     1.89081763    0.21349947    0.26884454
     atom   12 type  1   force =     0.80935344    0.51590101    1.29998293
     atom   13 type  1   force =    -0.04271218   -0.01135054   -0.01339224
     atom   14 type  2   force =     1.22038945    0.80297483    0.55437254
     atom   15 type  2   force =    -1.16410424   -0.79867449   -0.54989456
     The local contribution  to forces
     atom    1 type  1   force =     0.07852132   -0.08858780   -0.33493608
     atom    2 type  1   force =     0.13042664    0.12150123    0.32175309
     atom    3 type  1   force =    -0.01406001    0.07528476   -0.28564529
     atom    4 type  1   force =     0.03407180   -0.08370351    0.28057222
     atom    5 type  1   force =    -0.08687858    0.07401902    0.34217688
     atom    6 type  1   force =    -0.14381684   -0.10692529   -0.30159772
     atom    7 type  1   force =     1.69866539    0.20411028    0.26335712
     atom    8 type  1   force =     0.68619095    0.44834376    1.11701725
     atom    9 type  1   force =     0.93350048    1.41795697    0.27591935
     atom   10 type  1   force =    -0.92244206   -1.44075811   -0.30289057
     atom   11 type  1   force =    -1.69967953   -0.19196902   -0.26827404
     atom   12 type  1   force =    -0.67894352   -0.43650196   -1.11190582
     atom   13 type  1   force =     0.04378692    0.01104937    0.01451247
     atom   14 type  2   force =    -0.87598412   -0.58702924   -0.39577544
     atom   15 type  2   force =     0.82863239    0.58346136    0.39576160
     The core correction contribution to forces
     atom    1 type  1   force =     0.00107791   -0.00442472   -0.00570223
     atom    2 type  1   force =    -0.00098767   -0.00026558    0.00543447
     atom    3 type  1   force =    -0.00324374    0.00252399   -0.00557892
     atom    4 type  1   force =     0.00334553   -0.00279490    0.00531187
     atom    5 type  1   force =    -0.00106154    0.00441435    0.00594784
     atom    6 type  1   force =     0.00085486    0.00055479   -0.00526657
     atom    7 type  1   force =    -0.00330008   -0.00084526    0.00049712
     atom    8 type  1   force =    -0.00407692   -0.00222471   -0.00417833
     atom    9 type  1   force =    -0.00222916   -0.00278546    0.00063038
     atom   10 type  1   force =     0.00223794    0.00252577   -0.00080989
     atom   11 type  1   force =     0.00333712    0.00092889   -0.00040181
     atom   12 type  1   force =     0.00409841    0.00234499    0.00425418
     atom   13 type  1   force =     0.00039876    0.00015054    0.00015413
     atom   14 type  2   force =     0.00764914    0.00444431    0.00314467
     atom   15 type  2   force =    -0.00781169   -0.00457040   -0.00311428
     The Hubbard contrib.    to forces
     atom    1 type  1   force =     0.00000000    0.00000000    0.00000000
     atom    2 type  1   force =     0.00000000    0.00000000    0.00000000
     atom    3 type  1   force =     0.00000000    0.00000000    0.00000000
     atom    4 type  1   force =     0.00000000    0.00000000    0.00000000
     atom    5 type  1   force =     0.00000000    0.00000000    0.00000000
     atom    6 type  1   force =     0.00000000    0.00000000    0.00000000
     atom    7 type  1   force =     0.00000000    0.00000000    0.00000000
     atom    8 type  1   force =     0.00000000    0.00000000    0.00000000
     atom    9 type  1   force =     0.00000000    0.00000000    0.00000000
     atom   10 type  1   force =     0.00000000    0.00000000    0.00000000
     atom   11 type  1   force =     0.00000000    0.00000000    0.00000000
     atom   12 type  1   force =     0.00000000    0.00000000    0.00000000
     atom   13 type  1   force =     0.00000000    0.00000000    0.00000000
     atom   14 type  2   force =     0.00000000    0.00000000    0.00000000
     atom   15 type  2   force =     0.00000000    0.00000000    0.00000000
     The SCF correction term to forces
     atom    1 type  1   force =    -0.00000076    0.00000200    0.00000082
     atom    2 type  1   force =     0.00000194    0.00000129   -0.00000107
     atom    3 type  1   force =     0.00000147   -0.00000157    0.00000092
     atom    4 type  1   force =    -0.00000150    0.00000163   -0.00000096
     atom    5 type  1   force =     0.00000077   -0.00000207   -0.00000087
     atom    6 type  1   force =    -0.00000199   -0.00000132    0.00000116
     atom    7 type  1   force =    -0.00000122   -0.00000076   -0.00000034
     atom    8 type  1   force =    -0.00000141   -0.00000084   -0.00000038
     atom    9 type  1   force =    -0.00000121   -0.00000077   -0.00000029
     atom   10 type  1   force =     0.00000124    0.00000078    0.00000025
     atom   11 type  1   force =     0.00000122    0.00000074    0.00000034
     atom   12 type  1   force =     0.00000143    0.00000080    0.00000040
     atom   13 type  1   force =     0.00000007    0.00000007    0.00000004
     atom   14 type  2   force =    -0.00000268   -0.00000168   -0.00000084
     atom   15 type  2   force =     0.00000262    0.00000180    0.00000088

     Total force =     0.066049     Total SCF correction =     0.000008


     Computing stress (Cartesian axis) and pressure

          total   stress  (Ry/bohr**3)                   (kbar)     P=     -204.20
  -0.00178140   0.00005633   0.00016519         -262.05        8.29       24.30
   0.00005633  -0.00185137   0.00010205            8.29     -272.35       15.01
   0.00016519   0.00010205  -0.00053150           24.30       15.01      -78.19

     kinetic stress (kbar)   9046.18     28.52     39.57
                               28.52   9018.15     27.03
                               39.57     27.03   9296.98

     local   stress (kbar)  -1506.29    596.03    487.27
                              596.03  -2060.03    351.72
                              487.27    351.72  -2254.05

     nonloc. stress (kbar)    523.50     -2.18     -1.18
                               -2.18    525.62     -0.35
                               -1.18     -0.35    504.48

     hartree stress (kbar)    943.87   -332.03   -256.07
                             -332.03   1259.79   -173.37
                             -256.07   -173.37   1356.08

     exc-cor stress (kbar)     62.67      3.00      1.71
                                3.00     59.65      0.95
                                1.71      0.95     60.20

     corecor stress (kbar)  -2481.59     -4.33     -3.80
                               -4.33  -2477.32     -2.35
                               -3.80     -2.35  -2484.08

     ewald   stress (kbar)  -6850.39   -280.72   -243.20
                             -280.72  -6598.21   -188.60
                             -243.20   -188.60  -6557.80

     hubbard stress (kbar)      0.00      0.00      0.00
                                0.00      0.00      0.00
                                0.00      0.00      0.00

     DFT-D   stress (kbar)      0.00      0.00      0.00
                                0.00      0.00      0.00
                                0.00      0.00      0.00

     XDM     stress (kbar)      0.00      0.00      0.00
                                0.00      0.00      0.00
                                0.00      0.00      0.00

     dft-nl  stress (kbar)      0.00      0.00      0.00
                                0.00      0.00      0.00
                                0.00      0.00      0.00

     TS-vdW  stress (kbar)      0.00      0.00      0.00
                                0.00      0.00      0.00
                                0.00      0.00      0.00



     init_run     :      2.77s CPU      3.64s WALL (       1 calls)
     electrons    :     74.15s CPU     76.20s WALL (       1 calls)
     forces       :      1.10s CPU      1.11s WALL (       1 calls)
     stress       :      2.70s CPU      2.73s WALL (       1 calls)

     Called by init_run:
     wfcinit      :      2.21s CPU      2.68s WALL (       1 calls)
     wfcinit:atom :      0.04s CPU      0.04s WALL (      63 calls)
     wfcinit:wfcr :      1.98s CPU      2.45s WALL (      63 calls)
     potinit      :      0.19s CPU      0.21s WALL (       1 calls)
     hinit0       :      0.34s CPU      0.60s WALL (       1 calls)

     Called by electrons:
     c_bands      :     65.66s CPU     67.40s WALL (      14 calls)
     sum_band     :      7.83s CPU      8.06s WALL (      14 calls)
     v_of_rho     :      0.37s CPU      0.39s WALL (      15 calls)
     v_h          :      0.03s CPU      0.03s WALL (      15 calls)
     v_xc         :      0.40s CPU      0.41s WALL (      17 calls)
     newd         :      0.20s CPU      0.29s WALL (      15 calls)
     mix_rho      :      0.07s CPU      0.11s WALL (      14 calls)

     Called by c_bands:
     init_us_2    :      2.14s CPU      2.22s WALL (    1953 calls)
     cegterg      :     62.98s CPU     64.61s WALL (     882 calls)

     Called by sum_band:
     sum_band:wei :      0.01s CPU      0.01s WALL (      14 calls)
     sum_band:loo :      7.61s CPU      7.81s WALL (      14 calls)
     sum_band:buf :      0.34s CPU      0.35s WALL (     882 calls)
     sum_band:ini :      0.97s CPU      0.98s WALL (     882 calls)
     sum_band:cal :      1.37s CPU      1.41s WALL (     882 calls)
     sum_band:bec :      0.02s CPU      0.02s WALL (     882 calls)
     addusdens    :      0.18s CPU      0.21s WALL (      14 calls)
     addusd:skk   :      0.02s CPU      0.02s WALL (      14 calls)
     addusd:dgemm :      0.08s CPU      0.11s WALL (      14 calls)
     addusd:qvan2 :      0.06s CPU      0.06s WALL (      14 calls)

     Called by *egterg:
     cdiaghg      :      3.83s CPU      4.47s WALL (    5095 calls)
     cegterg:over :      4.68s CPU      4.78s WALL (    4213 calls)
     cegterg:upda :      2.87s CPU      2.92s WALL (    4213 calls)
     cegterg:last :      3.79s CPU      3.83s WALL (    2432 calls)
     h_psi        :     42.69s CPU     43.87s WALL (    5158 calls)
     s_psi        :      4.66s CPU      4.74s WALL (    5158 calls)
     g_psi        :      0.19s CPU      0.19s WALL (    4213 calls)

     Called by h_psi:
     h_psi:calbec :      6.47s CPU      6.71s WALL (    5158 calls)
     vloc_psi     :     30.07s CPU     30.94s WALL (    5158 calls)
     add_vuspsi   :      5.55s CPU      5.61s WALL (    5158 calls)

     General routines
     calbec       :      8.29s CPU      8.59s WALL (    6355 calls)
     fft          :      0.15s CPU      0.39s WALL (     218 calls)
     ffts         :      0.01s CPU      0.01s WALL (      29 calls)
     fftw         :     29.46s CPU     30.33s WALL (  205736 calls)
     interpolate  :      0.02s CPU      0.02s WALL (      15 calls)

     Parallel routines
     fft_scatt_xy :      4.56s CPU      4.67s WALL (  205983 calls)
     fft_scatt_yz :      7.31s CPU      7.54s WALL (  205983 calls)

     PWSCF        :   1m20.80s CPU   1m24.41s WALL


   This run was terminated on:  20:49:36  28Sep2022            

=------------------------------------------------------------------------------=
   JOB DONE.
=------------------------------------------------------------------------------=
Note: The following floating-point exceptions are signalling: IEEE_UNDERFLOW_FLAG IEEE_DENORMAL
