
     Program PWSCF v.6.7MaX starts on 13Mar2023 at 23:59:53 

     This program is part of the open-source Quantum ESPRESSO suite
     for quantum simulation of materials; please cite
         "P. Giannozzi et al., J. Phys.:Condens. Matter 21 395502 (2009);
         "P. Giannozzi et al., J. Phys.:Condens. Matter 29 465901 (2017);
          URL http://www.quantum-espresso.org", 
     in publications or presentations arising from this work. More details at
     http://www.quantum-espresso.org/quote

     Parallel version (MPI), running on    16 processors

     MPI processes distributed on     1 nodes
     R & G space division:  proc/nbgrp/npool/nimage =      16
     Reading input from path2_cod-6.in

     Current dimensions of program PWSCF are:
     Max number of different atomic species (ntypx) = 10
     Max number of k-points (npk) =  40000
     Max angular momentum in pseudopotentials (lmaxx) =  3
     Message from routine read_pp_mesh:
     mesh size missing, using the one in header
     file Fe.pbe-spn-kjpaw_psl.0.2.1.UPF: wavefunction(s)  3D renormalized
     file O.pbe-n-kjpaw_psl.0.1.UPF: wavefunction(s)  2P renormalized

     Subspace diagonalization in iterative solution of the eigenvalue problem:
     a serial algorithm will be used


     Parallelization info
     --------------------
     sticks:   dense  smooth     PW     G-vecs:    dense   smooth      PW
     Min        1241     460    123                80927    18242    2559
     Max        1242     462    124                80930    18243    2562
     Sum       19863    7371   1983              1294859   291873   40977



     bravais-lattice index     =            0
     lattice parameter (alat)  =      19.6651  a.u.
     unit-cell volume          =    2160.3578 (a.u.)^3
     number of atoms/cell      =           25
     number of atomic types    =            4
     number of electrons       =       189.00
     number of Kohn-Sham states=          114
     kinetic-energy cutoff     =     100.0000  Ry
     charge density cutoff     =    1080.0000  Ry
     scf convergence threshold =      2.0E-10
     mixing beta               =       0.4000
     number of iterations used =            8  plain     mixing
     Exchange-correlation= PBE
                           (   1   4   3   4   0   0   0)

     celldm(1)=  19.665057  celldm(2)=   0.000000  celldm(3)=   0.000000
     celldm(4)=   0.000000  celldm(5)=   0.000000  celldm(6)=   0.000000

     crystal axes: (cart. coord. in units of alat)
               a(1) = (   1.000000   0.000000   0.000000 )  
               a(2) = (   0.000000   0.597590   0.000000 )  
               a(3) = (   0.000000   0.000000   0.475375 )  

     reciprocal axes: (cart. coord. in units 2 pi/alat)
               b(1) = (  1.000000  0.000000  0.000000 )  
               b(2) = (  0.000000  1.673388  0.000000 )  
               b(3) = (  0.000000  0.000000  2.103600 )  


     PseudoPot. # 1 for Fe read from file:
     /opt/QEpot/SSSP_precision_pseudos/Fe.pbe-spn-kjpaw_psl.0.2.1.UPF
     MD5 check sum: e86618425769142926afa95317d90200
     Pseudo is Projector augmented-wave + core cor, Zval = 16.0
     Generated using "atomic" code by A. Dal Corso  v.5.0.99 svn rev. 10869
     Shape of augmentation charge: PSQ
     Using radial grid of 1191 points,  6 beta functions with: 
                l(1) =   0
                l(2) =   0
                l(3) =   1
                l(4) =   1
                l(5) =   2
                l(6) =   2
     Q(r) pseudized with 0 coefficients 


     PseudoPot. # 2 for Na read from file:
     /opt/QEpot/SSSP_precision_pseudos/Na_ONCV_PBE-1.0.oncvpsp.upf
     MD5 check sum: 24a298df0a6742ae313db96548fdb2a4
     Pseudo is Norm-conserving, Zval =  9.0
     Generated using ONCVPSP code by D. R. Hamann
     Using radial grid of 1992 points,  4 beta functions with: 
                l(1) =   0
                l(2) =   0
                l(3) =   1
                l(4) =   1

     PseudoPot. # 3 for O  read from file:
     /opt/QEpot/SSSP_precision_pseudos/O.pbe-n-kjpaw_psl.0.1.UPF
     MD5 check sum: 0234752ac141de4415c5fc33072bef88
     Pseudo is Projector augmented-wave + core cor, Zval =  6.0
     Generated using "atomic" code by A. Dal Corso  v.5.0.99 svn rev. 10869
     Shape of augmentation charge: BESSEL
     Using radial grid of 1095 points,  4 beta functions with: 
                l(1) =   0
                l(2) =   0
                l(3) =   1
                l(4) =   1
     Q(r) pseudized with 0 coefficients 


     PseudoPot. # 4 for P  read from file:
     /opt/QEpot/SSSP_precision_pseudos/P.pbe-n-rrkjus_psl.1.0.0.UPF
     MD5 check sum: 8b930f418f0a4573dca56cd030ffe088
     Pseudo is Ultrasoft + core correction, Zval =  5.0
     Generated using "atomic" code by A. Dal Corso  v.5.1
     Using radial grid of 1147 points,  6 beta functions with: 
                l(1) =   0
                l(2) =   0
                l(3) =   1
                l(4) =   1
                l(5) =   2
                l(6) =   2
     Q(r) pseudized with 0 coefficients 


     atomic species   valence    mass     pseudopotential
        Fe            16.00    55.84500     Fe( 1.00)
        Na             9.00    22.98977     Na( 1.00)
        O              6.00    15.99940     O ( 1.00)
        P              5.00    30.97376     P ( 1.00)

     Starting magnetic structure 
     atomic species   magnetization
        Fe           0.312
        Na           0.000
        O            0.000
        P            0.000

     No symmetry found


                                    s                        frac. trans.

      isym =  1     identity                                     

 cryst.   s( 1) = (     1          0          0      )
                  (     0          1          0      )
                  (     0          0          1      )

 cart.    s( 1) = (  1.0000000  0.0000000  0.0000000 )
                  (  0.0000000  1.0000000  0.0000000 )
                  (  0.0000000  0.0000000  1.0000000 )


   Cartesian axes

     site n.     atom                  positions (alat units)
         1           Na  tau(   1) = (   0.3561891   0.0079178   0.1018649  )
         2           Fe  tau(   2) = (   0.2887126   0.3710466   0.4627961  )
         3           Fe  tau(   3) = (   0.1675339   0.1511296   0.2175044  )
         4           Fe  tau(   4) = (   0.7123841   0.1453780   0.0257096  )
         5           Fe  tau(   5) = (   0.7740778   0.4544254   0.2736698  )
         6           P   tau(   6) = (   0.0985495   0.4486735   0.2231820  )
         7           P   tau(   7) = (   0.4134991   0.1786962   0.3708335  )
         8           P   tau(   8) = (   0.8780535   0.1496089   0.2932514  )
         9           P   tau(   9) = (   0.5985506   0.4321043   0.0499271  )
        10           O   tau(  10) = (   0.1541464   0.4449076   0.3616807  )
        11           O   tau(  11) = (   0.3362051   0.1942909   0.0269642  )
        12           O   tau(  12) = (   0.8570172   0.1425422   0.1473537  )
        13           O   tau(  13) = (   0.6293979   0.4447914   0.3814101  )
        14           O   tau(  14) = (   0.4501645   0.4375180   0.0638904  )
        15           O   tau(  15) = (   0.0236476   0.1580394   0.3265190  )
        16           O   tau(  16) = (   0.5492423   0.1283963   0.3974310  )
        17           O   tau(  17) = (   0.9514272   0.4382273   0.2207632  )
        18           O   tau(  18) = (   0.1429947   0.5724761   0.1505364  )
        19           O   tau(  19) = (   0.3317792   0.0808879   0.2924516  )
        20           O   tau(  20) = (   0.8056466   0.2631388   0.3602758  )
        21           O   tau(  21) = (   0.6526083   0.3067914   0.1117309  )
        22           O   tau(  22) = (   0.8165264   0.0302244   0.3637165  )
        23           O   tau(  23) = (   0.6666152   0.5444542   0.1259966  )
        24           O   tau(  24) = (   0.1597374   0.3318244   0.1452930  )
        25           O   tau(  25) = (   0.3975767   0.3136240   0.3106699  )

   Crystallographic axes

     site n.     atom                  positions (cryst. coord.)
         1           Na  tau(   1) = (  0.3561891  0.0132496  0.2142829  )
         2           Fe  tau(   2) = (  0.2887126  0.6209051  0.9735379  )
         3           Fe  tau(   3) = (  0.1675339  0.2528984  0.4575423  )
         4           Fe  tau(   4) = (  0.7123841  0.2432738  0.0540827  )
         5           Fe  tau(   5) = (  0.7740778  0.7604301  0.5756919  )
         6           P   tau(   6) = (  0.0985495  0.7508049  0.4694857  )
         7           P   tau(   7) = (  0.4134991  0.2990281  0.7800855  )
         8           P   tau(   8) = (  0.8780535  0.2503538  0.6168837  )
         9           P   tau(   9) = (  0.5985506  0.7230783  0.1050267  )
        10           O   tau(  10) = (  0.1541464  0.7445032  0.7608316  )
        11           O   tau(  11) = (  0.3362051  0.3251242  0.0567220  )
        12           O   tau(  12) = (  0.8570172  0.2385284  0.3099732  )
        13           O   tau(  13) = (  0.6293979  0.7443088  0.8023343  )
        14           O   tau(  14) = (  0.4501645  0.7321375  0.1343999  )
        15           O   tau(  15) = (  0.0236476  0.2644612  0.6868655  )
        16           O   tau(  16) = (  0.5492423  0.2148568  0.8360360  )
        17           O   tau(  17) = (  0.9514272  0.7333244  0.4643976  )
        18           O   tau(  18) = (  0.1429947  0.9579748  0.3166684  )
        19           O   tau(  19) = (  0.3317792  0.1353569  0.6152013  )
        20           O   tau(  20) = (  0.8056466  0.4403334  0.7578763  )
        21           O   tau(  21) = (  0.6526083  0.5133812  0.2350371  )
        22           O   tau(  22) = (  0.8165264  0.0505772  0.7651141  )
        23           O   tau(  23) = (  0.6666152  0.9110834  0.2650465  )
        24           O   tau(  24) = (  0.1597374  0.5552711  0.3056383  )
        25           O   tau(  25) = (  0.3975767  0.5248148  0.6535253  )

     number of k points=   158  Marzari-Vanderbilt smearing, width (Ry)=  0.0073
                       cart. coord. in units 2pi/alat
        k(    1) = (   0.0000000   0.0000000   0.0000000), wk =   0.0031746
        k(    2) = (   0.0000000   0.0000000   0.2337334), wk =   0.0063492
        k(    3) = (   0.0000000   0.0000000   0.4674667), wk =   0.0063492
        k(    4) = (   0.0000000   0.0000000   0.7012001), wk =   0.0063492
        k(    5) = (   0.0000000   0.0000000   0.9349334), wk =   0.0063492
        k(    6) = (   0.0000000   0.2390555   0.0000000), wk =   0.0063492
        k(    7) = (   0.0000000   0.2390555   0.2337334), wk =   0.0063492
        k(    8) = (   0.0000000   0.2390555   0.4674667), wk =   0.0063492
        k(    9) = (   0.0000000   0.2390555   0.7012001), wk =   0.0063492
        k(   10) = (   0.0000000   0.2390555   0.9349334), wk =   0.0063492
        k(   11) = (   0.0000000   0.4781110   0.0000000), wk =   0.0063492
        k(   12) = (   0.0000000   0.4781110   0.2337334), wk =   0.0063492
        k(   13) = (   0.0000000   0.4781110   0.4674667), wk =   0.0063492
        k(   14) = (   0.0000000   0.4781110   0.7012001), wk =   0.0063492
        k(   15) = (   0.0000000   0.4781110   0.9349334), wk =   0.0063492
        k(   16) = (   0.0000000   0.7171664   0.0000000), wk =   0.0063492
        k(   17) = (   0.0000000   0.7171664   0.2337334), wk =   0.0063492
        k(   18) = (   0.0000000   0.7171664   0.4674667), wk =   0.0063492
        k(   19) = (   0.0000000   0.7171664   0.7012001), wk =   0.0063492
        k(   20) = (   0.0000000   0.7171664   0.9349334), wk =   0.0063492
        k(   21) = (   0.2000000   0.0000000   0.0000000), wk =   0.0063492
        k(   22) = (   0.2000000   0.0000000   0.2337334), wk =   0.0063492
        k(   23) = (   0.2000000   0.0000000   0.4674667), wk =   0.0063492
        k(   24) = (   0.2000000   0.0000000   0.7012001), wk =   0.0063492
        k(   25) = (   0.2000000   0.0000000   0.9349334), wk =   0.0063492
        k(   26) = (   0.2000000   0.2390555   0.0000000), wk =   0.0063492
        k(   27) = (   0.2000000   0.2390555   0.2337334), wk =   0.0063492
        k(   28) = (   0.2000000   0.2390555   0.4674667), wk =   0.0063492
        k(   29) = (   0.2000000   0.2390555   0.7012001), wk =   0.0063492
        k(   30) = (   0.2000000   0.2390555   0.9349334), wk =   0.0063492
        k(   31) = (   0.2000000   0.4781110   0.0000000), wk =   0.0063492
        k(   32) = (   0.2000000   0.4781110   0.2337334), wk =   0.0063492
        k(   33) = (   0.2000000   0.4781110   0.4674667), wk =   0.0063492
        k(   34) = (   0.2000000   0.4781110   0.7012001), wk =   0.0063492
        k(   35) = (   0.2000000   0.4781110   0.9349334), wk =   0.0063492
        k(   36) = (   0.2000000   0.7171664   0.0000000), wk =   0.0063492
        k(   37) = (   0.2000000   0.7171664   0.2337334), wk =   0.0063492
        k(   38) = (   0.2000000   0.7171664   0.4674667), wk =   0.0063492
        k(   39) = (   0.2000000   0.7171664   0.7012001), wk =   0.0063492
        k(   40) = (   0.2000000   0.7171664   0.9349334), wk =   0.0063492
        k(   41) = (   0.4000000   0.0000000   0.0000000), wk =   0.0063492
        k(   42) = (   0.4000000   0.0000000   0.2337334), wk =   0.0063492
        k(   43) = (   0.4000000   0.0000000   0.4674667), wk =   0.0063492
        k(   44) = (   0.4000000   0.0000000   0.7012001), wk =   0.0063492
        k(   45) = (   0.4000000   0.0000000   0.9349334), wk =   0.0063492
        k(   46) = (   0.4000000   0.2390555   0.0000000), wk =   0.0063492
        k(   47) = (   0.4000000   0.2390555   0.2337334), wk =   0.0063492
        k(   48) = (   0.4000000   0.2390555   0.4674667), wk =   0.0063492
        k(   49) = (   0.4000000   0.2390555   0.7012001), wk =   0.0063492
        k(   50) = (   0.4000000   0.2390555   0.9349334), wk =   0.0063492
        k(   51) = (   0.4000000   0.4781110   0.0000000), wk =   0.0063492
        k(   52) = (   0.4000000   0.4781110   0.2337334), wk =   0.0063492
        k(   53) = (   0.4000000   0.4781110   0.4674667), wk =   0.0063492
        k(   54) = (   0.4000000   0.4781110   0.7012001), wk =   0.0063492
        k(   55) = (   0.4000000   0.4781110   0.9349334), wk =   0.0063492
        k(   56) = (   0.4000000   0.7171664   0.0000000), wk =   0.0063492
        k(   57) = (   0.4000000   0.7171664   0.2337334), wk =   0.0063492
        k(   58) = (   0.4000000   0.7171664   0.4674667), wk =   0.0063492
        k(   59) = (   0.4000000   0.7171664   0.7012001), wk =   0.0063492
        k(   60) = (   0.4000000   0.7171664   0.9349334), wk =   0.0063492
        k(   61) = (   0.0000000  -0.2390555   0.2337334), wk =   0.0063492
        k(   62) = (   0.0000000  -0.2390555   0.4674667), wk =   0.0063492
        k(   63) = (   0.0000000  -0.2390555   0.7012001), wk =   0.0063492
        k(   64) = (   0.0000000  -0.2390555   0.9349334), wk =   0.0063492
        k(   65) = (   0.0000000  -0.4781110   0.2337334), wk =   0.0063492
        k(   66) = (   0.0000000  -0.4781110   0.4674667), wk =   0.0063492
        k(   67) = (   0.0000000  -0.4781110   0.7012001), wk =   0.0063492
        k(   68) = (   0.0000000  -0.4781110   0.9349334), wk =   0.0063492
        k(   69) = (   0.0000000  -0.7171664   0.2337334), wk =   0.0063492
        k(   70) = (   0.0000000  -0.7171664   0.4674667), wk =   0.0063492
        k(   71) = (   0.0000000  -0.7171664   0.7012001), wk =   0.0063492
        k(   72) = (   0.0000000  -0.7171664   0.9349334), wk =   0.0063492
        k(   73) = (  -0.2000000   0.0000000   0.2337334), wk =   0.0063492
        k(   74) = (  -0.2000000   0.0000000   0.4674667), wk =   0.0063492
        k(   75) = (  -0.2000000   0.0000000   0.7012001), wk =   0.0063492
        k(   76) = (  -0.2000000   0.0000000   0.9349334), wk =   0.0063492
        k(   77) = (  -0.2000000   0.2390555   0.0000000), wk =   0.0063492
        k(   78) = (  -0.2000000  -0.2390555   0.2337334), wk =   0.0063492
        k(   79) = (  -0.2000000   0.2390555  -0.2337334), wk =   0.0063492
        k(   80) = (   0.2000000  -0.2390555  -0.2337334), wk =   0.0063492
        k(   81) = (  -0.2000000  -0.2390555   0.4674667), wk =   0.0063492
        k(   82) = (  -0.2000000   0.2390555  -0.4674667), wk =   0.0063492
        k(   83) = (   0.2000000  -0.2390555  -0.4674667), wk =   0.0063492
        k(   84) = (  -0.2000000  -0.2390555   0.7012001), wk =   0.0063492
        k(   85) = (  -0.2000000   0.2390555  -0.7012001), wk =   0.0063492
        k(   86) = (   0.2000000  -0.2390555  -0.7012001), wk =   0.0063492
        k(   87) = (  -0.2000000  -0.2390555   0.9349334), wk =   0.0063492
        k(   88) = (  -0.2000000   0.2390555  -0.9349334), wk =   0.0063492
        k(   89) = (   0.2000000  -0.2390555  -0.9349334), wk =   0.0063492
        k(   90) = (  -0.2000000   0.4781110   0.0000000), wk =   0.0063492
        k(   91) = (  -0.2000000  -0.4781110   0.2337334), wk =   0.0063492
        k(   92) = (  -0.2000000   0.4781110  -0.2337334), wk =   0.0063492
        k(   93) = (   0.2000000  -0.4781110  -0.2337334), wk =   0.0063492
        k(   94) = (  -0.2000000  -0.4781110   0.4674667), wk =   0.0063492
        k(   95) = (  -0.2000000   0.4781110  -0.4674667), wk =   0.0063492
        k(   96) = (   0.2000000  -0.4781110  -0.4674667), wk =   0.0063492
        k(   97) = (  -0.2000000  -0.4781110   0.7012001), wk =   0.0063492
        k(   98) = (  -0.2000000   0.4781110  -0.7012001), wk =   0.0063492
        k(   99) = (   0.2000000  -0.4781110  -0.7012001), wk =   0.0063492
        k(  100) = (  -0.2000000  -0.4781110   0.9349334), wk =   0.0063492
        k(  101) = (  -0.2000000   0.4781110  -0.9349334), wk =   0.0063492
        k(  102) = (   0.2000000  -0.4781110  -0.9349334), wk =   0.0063492
        k(  103) = (  -0.2000000   0.7171664   0.0000000), wk =   0.0063492
        k(  104) = (  -0.2000000  -0.7171664   0.2337334), wk =   0.0063492
        k(  105) = (  -0.2000000   0.7171664  -0.2337334), wk =   0.0063492
        k(  106) = (   0.2000000  -0.7171664  -0.2337334), wk =   0.0063492
        k(  107) = (  -0.2000000  -0.7171664   0.4674667), wk =   0.0063492
        k(  108) = (  -0.2000000   0.7171664  -0.4674667), wk =   0.0063492
        k(  109) = (   0.2000000  -0.7171664  -0.4674667), wk =   0.0063492
        k(  110) = (  -0.2000000  -0.7171664   0.7012001), wk =   0.0063492
        k(  111) = (  -0.2000000   0.7171664  -0.7012001), wk =   0.0063492
        k(  112) = (   0.2000000  -0.7171664  -0.7012001), wk =   0.0063492
        k(  113) = (  -0.2000000  -0.7171664   0.9349334), wk =   0.0063492
        k(  114) = (  -0.2000000   0.7171664  -0.9349334), wk =   0.0063492
        k(  115) = (   0.2000000  -0.7171664  -0.9349334), wk =   0.0063492
        k(  116) = (  -0.4000000   0.0000000   0.2337334), wk =   0.0063492
        k(  117) = (  -0.4000000   0.0000000   0.4674667), wk =   0.0063492
        k(  118) = (  -0.4000000   0.0000000   0.7012001), wk =   0.0063492
        k(  119) = (  -0.4000000   0.0000000   0.9349334), wk =   0.0063492
        k(  120) = (  -0.4000000   0.2390555   0.0000000), wk =   0.0063492
        k(  121) = (  -0.4000000  -0.2390555   0.2337334), wk =   0.0063492
        k(  122) = (  -0.4000000   0.2390555  -0.2337334), wk =   0.0063492
        k(  123) = (   0.4000000  -0.2390555  -0.2337334), wk =   0.0063492
        k(  124) = (  -0.4000000  -0.2390555   0.4674667), wk =   0.0063492
        k(  125) = (  -0.4000000   0.2390555  -0.4674667), wk =   0.0063492
        k(  126) = (   0.4000000  -0.2390555  -0.4674667), wk =   0.0063492
        k(  127) = (  -0.4000000  -0.2390555   0.7012001), wk =   0.0063492
        k(  128) = (  -0.4000000   0.2390555  -0.7012001), wk =   0.0063492
        k(  129) = (   0.4000000  -0.2390555  -0.7012001), wk =   0.0063492
        k(  130) = (  -0.4000000  -0.2390555   0.9349334), wk =   0.0063492
        k(  131) = (  -0.4000000   0.2390555  -0.9349334), wk =   0.0063492
        k(  132) = (   0.4000000  -0.2390555  -0.9349334), wk =   0.0063492
        k(  133) = (  -0.4000000   0.4781110   0.0000000), wk =   0.0063492
        k(  134) = (  -0.4000000  -0.4781110   0.2337334), wk =   0.0063492
        k(  135) = (  -0.4000000   0.4781110  -0.2337334), wk =   0.0063492
        k(  136) = (   0.4000000  -0.4781110  -0.2337334), wk =   0.0063492
        k(  137) = (  -0.4000000  -0.4781110   0.4674667), wk =   0.0063492
        k(  138) = (  -0.4000000   0.4781110  -0.4674667), wk =   0.0063492
        k(  139) = (   0.4000000  -0.4781110  -0.4674667), wk =   0.0063492
        k(  140) = (  -0.4000000  -0.4781110   0.7012001), wk =   0.0063492
        k(  141) = (  -0.4000000   0.4781110  -0.7012001), wk =   0.0063492
        k(  142) = (   0.4000000  -0.4781110  -0.7012001), wk =   0.0063492
        k(  143) = (  -0.4000000  -0.4781110   0.9349334), wk =   0.0063492
        k(  144) = (  -0.4000000   0.4781110  -0.9349334), wk =   0.0063492
        k(  145) = (   0.4000000  -0.4781110  -0.9349334), wk =   0.0063492
        k(  146) = (  -0.4000000   0.7171664   0.0000000), wk =   0.0063492
        k(  147) = (  -0.4000000  -0.7171664   0.2337334), wk =   0.0063492
        k(  148) = (  -0.4000000   0.7171664  -0.2337334), wk =   0.0063492
        k(  149) = (   0.4000000  -0.7171664  -0.2337334), wk =   0.0063492
        k(  150) = (  -0.4000000  -0.7171664   0.4674667), wk =   0.0063492
        k(  151) = (  -0.4000000   0.7171664  -0.4674667), wk =   0.0063492
        k(  152) = (   0.4000000  -0.7171664  -0.4674667), wk =   0.0063492
        k(  153) = (  -0.4000000  -0.7171664   0.7012001), wk =   0.0063492
        k(  154) = (  -0.4000000   0.7171664  -0.7012001), wk =   0.0063492
        k(  155) = (   0.4000000  -0.7171664  -0.7012001), wk =   0.0063492
        k(  156) = (  -0.4000000  -0.7171664   0.9349334), wk =   0.0063492
        k(  157) = (  -0.4000000   0.7171664  -0.9349334), wk =   0.0063492
        k(  158) = (   0.4000000  -0.7171664  -0.9349334), wk =   0.0063492

                       cryst. coord.
        k(    1) = (   0.0000000   0.0000000   0.0000000), wk =   0.0031746
        k(    2) = (   0.0000000   0.0000000   0.1111111), wk =   0.0063492
        k(    3) = (   0.0000000   0.0000000   0.2222222), wk =   0.0063492
        k(    4) = (   0.0000000   0.0000000   0.3333333), wk =   0.0063492
        k(    5) = (   0.0000000   0.0000000   0.4444444), wk =   0.0063492
        k(    6) = (   0.0000000   0.1428571   0.0000000), wk =   0.0063492
        k(    7) = (   0.0000000   0.1428571   0.1111111), wk =   0.0063492
        k(    8) = (   0.0000000   0.1428571   0.2222222), wk =   0.0063492
        k(    9) = (   0.0000000   0.1428571   0.3333333), wk =   0.0063492
        k(   10) = (   0.0000000   0.1428571   0.4444444), wk =   0.0063492
        k(   11) = (   0.0000000   0.2857143   0.0000000), wk =   0.0063492
        k(   12) = (   0.0000000   0.2857143   0.1111111), wk =   0.0063492
        k(   13) = (   0.0000000   0.2857143   0.2222222), wk =   0.0063492
        k(   14) = (   0.0000000   0.2857143   0.3333333), wk =   0.0063492
        k(   15) = (   0.0000000   0.2857143   0.4444444), wk =   0.0063492
        k(   16) = (   0.0000000   0.4285714   0.0000000), wk =   0.0063492
        k(   17) = (   0.0000000   0.4285714   0.1111111), wk =   0.0063492
        k(   18) = (   0.0000000   0.4285714   0.2222222), wk =   0.0063492
        k(   19) = (   0.0000000   0.4285714   0.3333333), wk =   0.0063492
        k(   20) = (   0.0000000   0.4285714   0.4444444), wk =   0.0063492
        k(   21) = (   0.2000000   0.0000000   0.0000000), wk =   0.0063492
        k(   22) = (   0.2000000   0.0000000   0.1111111), wk =   0.0063492
        k(   23) = (   0.2000000   0.0000000   0.2222222), wk =   0.0063492
        k(   24) = (   0.2000000   0.0000000   0.3333333), wk =   0.0063492
        k(   25) = (   0.2000000   0.0000000   0.4444444), wk =   0.0063492
        k(   26) = (   0.2000000   0.1428571   0.0000000), wk =   0.0063492
        k(   27) = (   0.2000000   0.1428571   0.1111111), wk =   0.0063492
        k(   28) = (   0.2000000   0.1428571   0.2222222), wk =   0.0063492
        k(   29) = (   0.2000000   0.1428571   0.3333333), wk =   0.0063492
        k(   30) = (   0.2000000   0.1428571   0.4444444), wk =   0.0063492
        k(   31) = (   0.2000000   0.2857143   0.0000000), wk =   0.0063492
        k(   32) = (   0.2000000   0.2857143   0.1111111), wk =   0.0063492
        k(   33) = (   0.2000000   0.2857143   0.2222222), wk =   0.0063492
        k(   34) = (   0.2000000   0.2857143   0.3333333), wk =   0.0063492
        k(   35) = (   0.2000000   0.2857143   0.4444444), wk =   0.0063492
        k(   36) = (   0.2000000   0.4285714   0.0000000), wk =   0.0063492
        k(   37) = (   0.2000000   0.4285714   0.1111111), wk =   0.0063492
        k(   38) = (   0.2000000   0.4285714   0.2222222), wk =   0.0063492
        k(   39) = (   0.2000000   0.4285714   0.3333333), wk =   0.0063492
        k(   40) = (   0.2000000   0.4285714   0.4444444), wk =   0.0063492
        k(   41) = (   0.4000000   0.0000000   0.0000000), wk =   0.0063492
        k(   42) = (   0.4000000   0.0000000   0.1111111), wk =   0.0063492
        k(   43) = (   0.4000000   0.0000000   0.2222222), wk =   0.0063492
        k(   44) = (   0.4000000   0.0000000   0.3333333), wk =   0.0063492
        k(   45) = (   0.4000000   0.0000000   0.4444444), wk =   0.0063492
        k(   46) = (   0.4000000   0.1428571   0.0000000), wk =   0.0063492
        k(   47) = (   0.4000000   0.1428571   0.1111111), wk =   0.0063492
        k(   48) = (   0.4000000   0.1428571   0.2222222), wk =   0.0063492
        k(   49) = (   0.4000000   0.1428571   0.3333333), wk =   0.0063492
        k(   50) = (   0.4000000   0.1428571   0.4444444), wk =   0.0063492
        k(   51) = (   0.4000000   0.2857143   0.0000000), wk =   0.0063492
        k(   52) = (   0.4000000   0.2857143   0.1111111), wk =   0.0063492
        k(   53) = (   0.4000000   0.2857143   0.2222222), wk =   0.0063492
        k(   54) = (   0.4000000   0.2857143   0.3333333), wk =   0.0063492
        k(   55) = (   0.4000000   0.2857143   0.4444444), wk =   0.0063492
        k(   56) = (   0.4000000   0.4285714   0.0000000), wk =   0.0063492
        k(   57) = (   0.4000000   0.4285714   0.1111111), wk =   0.0063492
        k(   58) = (   0.4000000   0.4285714   0.2222222), wk =   0.0063492
        k(   59) = (   0.4000000   0.4285714   0.3333333), wk =   0.0063492
        k(   60) = (   0.4000000   0.4285714   0.4444444), wk =   0.0063492
        k(   61) = (   0.0000000  -0.1428571   0.1111111), wk =   0.0063492
        k(   62) = (   0.0000000  -0.1428571   0.2222222), wk =   0.0063492
        k(   63) = (   0.0000000  -0.1428571   0.3333333), wk =   0.0063492
        k(   64) = (   0.0000000  -0.1428571   0.4444444), wk =   0.0063492
        k(   65) = (   0.0000000  -0.2857143   0.1111111), wk =   0.0063492
        k(   66) = (   0.0000000  -0.2857143   0.2222222), wk =   0.0063492
        k(   67) = (   0.0000000  -0.2857143   0.3333333), wk =   0.0063492
        k(   68) = (   0.0000000  -0.2857143   0.4444444), wk =   0.0063492
        k(   69) = (   0.0000000  -0.4285714   0.1111111), wk =   0.0063492
        k(   70) = (   0.0000000  -0.4285714   0.2222222), wk =   0.0063492
        k(   71) = (   0.0000000  -0.4285714   0.3333333), wk =   0.0063492
        k(   72) = (   0.0000000  -0.4285714   0.4444444), wk =   0.0063492
        k(   73) = (  -0.2000000   0.0000000   0.1111111), wk =   0.0063492
        k(   74) = (  -0.2000000   0.0000000   0.2222222), wk =   0.0063492
        k(   75) = (  -0.2000000   0.0000000   0.3333333), wk =   0.0063492
        k(   76) = (  -0.2000000   0.0000000   0.4444444), wk =   0.0063492
        k(   77) = (  -0.2000000   0.1428571   0.0000000), wk =   0.0063492
        k(   78) = (  -0.2000000  -0.1428571   0.1111111), wk =   0.0063492
        k(   79) = (  -0.2000000   0.1428571  -0.1111111), wk =   0.0063492
        k(   80) = (   0.2000000  -0.1428571  -0.1111111), wk =   0.0063492
        k(   81) = (  -0.2000000  -0.1428571   0.2222222), wk =   0.0063492
        k(   82) = (  -0.2000000   0.1428571  -0.2222222), wk =   0.0063492
        k(   83) = (   0.2000000  -0.1428571  -0.2222222), wk =   0.0063492
        k(   84) = (  -0.2000000  -0.1428571   0.3333333), wk =   0.0063492
        k(   85) = (  -0.2000000   0.1428571  -0.3333333), wk =   0.0063492
        k(   86) = (   0.2000000  -0.1428571  -0.3333333), wk =   0.0063492
        k(   87) = (  -0.2000000  -0.1428571   0.4444444), wk =   0.0063492
        k(   88) = (  -0.2000000   0.1428571  -0.4444444), wk =   0.0063492
        k(   89) = (   0.2000000  -0.1428571  -0.4444444), wk =   0.0063492
        k(   90) = (  -0.2000000   0.2857143   0.0000000), wk =   0.0063492
        k(   91) = (  -0.2000000  -0.2857143   0.1111111), wk =   0.0063492
        k(   92) = (  -0.2000000   0.2857143  -0.1111111), wk =   0.0063492
        k(   93) = (   0.2000000  -0.2857143  -0.1111111), wk =   0.0063492
        k(   94) = (  -0.2000000  -0.2857143   0.2222222), wk =   0.0063492
        k(   95) = (  -0.2000000   0.2857143  -0.2222222), wk =   0.0063492
        k(   96) = (   0.2000000  -0.2857143  -0.2222222), wk =   0.0063492
        k(   97) = (  -0.2000000  -0.2857143   0.3333333), wk =   0.0063492
        k(   98) = (  -0.2000000   0.2857143  -0.3333333), wk =   0.0063492
        k(   99) = (   0.2000000  -0.2857143  -0.3333333), wk =   0.0063492
        k(  100) = (  -0.2000000  -0.2857143   0.4444444), wk =   0.0063492
        k(  101) = (  -0.2000000   0.2857143  -0.4444444), wk =   0.0063492
        k(  102) = (   0.2000000  -0.2857143  -0.4444444), wk =   0.0063492
        k(  103) = (  -0.2000000   0.4285714   0.0000000), wk =   0.0063492
        k(  104) = (  -0.2000000  -0.4285714   0.1111111), wk =   0.0063492
        k(  105) = (  -0.2000000   0.4285714  -0.1111111), wk =   0.0063492
        k(  106) = (   0.2000000  -0.4285714  -0.1111111), wk =   0.0063492
        k(  107) = (  -0.2000000  -0.4285714   0.2222222), wk =   0.0063492
        k(  108) = (  -0.2000000   0.4285714  -0.2222222), wk =   0.0063492
        k(  109) = (   0.2000000  -0.4285714  -0.2222222), wk =   0.0063492
        k(  110) = (  -0.2000000  -0.4285714   0.3333333), wk =   0.0063492
        k(  111) = (  -0.2000000   0.4285714  -0.3333333), wk =   0.0063492
        k(  112) = (   0.2000000  -0.4285714  -0.3333333), wk =   0.0063492
        k(  113) = (  -0.2000000  -0.4285714   0.4444444), wk =   0.0063492
        k(  114) = (  -0.2000000   0.4285714  -0.4444444), wk =   0.0063492
        k(  115) = (   0.2000000  -0.4285714  -0.4444444), wk =   0.0063492
        k(  116) = (  -0.4000000   0.0000000   0.1111111), wk =   0.0063492
        k(  117) = (  -0.4000000   0.0000000   0.2222222), wk =   0.0063492
        k(  118) = (  -0.4000000   0.0000000   0.3333333), wk =   0.0063492
        k(  119) = (  -0.4000000   0.0000000   0.4444444), wk =   0.0063492
        k(  120) = (  -0.4000000   0.1428571   0.0000000), wk =   0.0063492
        k(  121) = (  -0.4000000  -0.1428571   0.1111111), wk =   0.0063492
        k(  122) = (  -0.4000000   0.1428571  -0.1111111), wk =   0.0063492
        k(  123) = (   0.4000000  -0.1428571  -0.1111111), wk =   0.0063492
        k(  124) = (  -0.4000000  -0.1428571   0.2222222), wk =   0.0063492
        k(  125) = (  -0.4000000   0.1428571  -0.2222222), wk =   0.0063492
        k(  126) = (   0.4000000  -0.1428571  -0.2222222), wk =   0.0063492
        k(  127) = (  -0.4000000  -0.1428571   0.3333333), wk =   0.0063492
        k(  128) = (  -0.4000000   0.1428571  -0.3333333), wk =   0.0063492
        k(  129) = (   0.4000000  -0.1428571  -0.3333333), wk =   0.0063492
        k(  130) = (  -0.4000000  -0.1428571   0.4444444), wk =   0.0063492
        k(  131) = (  -0.4000000   0.1428571  -0.4444444), wk =   0.0063492
        k(  132) = (   0.4000000  -0.1428571  -0.4444444), wk =   0.0063492
        k(  133) = (  -0.4000000   0.2857143   0.0000000), wk =   0.0063492
        k(  134) = (  -0.4000000  -0.2857143   0.1111111), wk =   0.0063492
        k(  135) = (  -0.4000000   0.2857143  -0.1111111), wk =   0.0063492
        k(  136) = (   0.4000000  -0.2857143  -0.1111111), wk =   0.0063492
        k(  137) = (  -0.4000000  -0.2857143   0.2222222), wk =   0.0063492
        k(  138) = (  -0.4000000   0.2857143  -0.2222222), wk =   0.0063492
        k(  139) = (   0.4000000  -0.2857143  -0.2222222), wk =   0.0063492
        k(  140) = (  -0.4000000  -0.2857143   0.3333333), wk =   0.0063492
        k(  141) = (  -0.4000000   0.2857143  -0.3333333), wk =   0.0063492
        k(  142) = (   0.4000000  -0.2857143  -0.3333333), wk =   0.0063492
        k(  143) = (  -0.4000000  -0.2857143   0.4444444), wk =   0.0063492
        k(  144) = (  -0.4000000   0.2857143  -0.4444444), wk =   0.0063492
        k(  145) = (   0.4000000  -0.2857143  -0.4444444), wk =   0.0063492
        k(  146) = (  -0.4000000   0.4285714   0.0000000), wk =   0.0063492
        k(  147) = (  -0.4000000  -0.4285714   0.1111111), wk =   0.0063492
        k(  148) = (  -0.4000000   0.4285714  -0.1111111), wk =   0.0063492
        k(  149) = (   0.4000000  -0.4285714  -0.1111111), wk =   0.0063492
        k(  150) = (  -0.4000000  -0.4285714   0.2222222), wk =   0.0063492
        k(  151) = (  -0.4000000   0.4285714  -0.2222222), wk =   0.0063492
        k(  152) = (   0.4000000  -0.4285714  -0.2222222), wk =   0.0063492
        k(  153) = (  -0.4000000  -0.4285714   0.3333333), wk =   0.0063492
        k(  154) = (  -0.4000000   0.4285714  -0.3333333), wk =   0.0063492
        k(  155) = (   0.4000000  -0.4285714  -0.3333333), wk =   0.0063492
        k(  156) = (  -0.4000000  -0.4285714   0.4444444), wk =   0.0063492
        k(  157) = (  -0.4000000   0.4285714  -0.4444444), wk =   0.0063492
        k(  158) = (   0.4000000  -0.4285714  -0.4444444), wk =   0.0063492

     Dense  grid:  1294859 G-vectors     FFT dimensions: ( 216, 125, 100)

     Smooth grid:   291873 G-vectors     FFT dimensions: ( 125,  75,  60)

     Dynamical RAM for                 wfc:       3.97 MB

     Dynamical RAM for     wfc (w. buffer):    1257.24 MB

     Dynamical RAM for           str. fact:       4.94 MB

     Dynamical RAM for           local pot:       0.00 MB

     Dynamical RAM for          nlocal pot:       9.74 MB

     Dynamical RAM for                qrad:      10.54 MB

     Dynamical RAM for          rho,v,vnew:      16.06 MB

     Dynamical RAM for               rhoin:       5.35 MB

     Dynamical RAM for            rho*nmix:      39.52 MB

     Dynamical RAM for           G-vectors:       4.77 MB

     Dynamical RAM for          h,s,v(r/c):       2.38 MB

     Dynamical RAM for          <psi|beta>:       0.49 MB

     Dynamical RAM for                 psi:       7.93 MB

     Dynamical RAM for                hpsi:       7.93 MB

     Dynamical RAM for                spsi:       7.93 MB

     Dynamical RAM for      wfcinit/wfcrot:       9.96 MB

     Dynamical RAM for           addusdens:     250.68 MB

     Dynamical RAM for          addusforce:     287.85 MB

     Dynamical RAM for         addusstress:     250.06 MB

     Estimated static dynamical RAM per process >       1.33 GB

     Estimated max dynamical RAM per process >       1.61 GB

     Estimated total dynamical RAM >      25.79 GB

     Check: negative core charge=   -0.000003
     Generating pointlists ...
     new r_m :   0.0745 (alat units)  1.4654 (a.u.) for type    1
     new r_m :   0.0809 (alat units)  1.5915 (a.u.) for type    2
     new r_m :   0.0607 (alat units)  1.1939 (a.u.) for type    3
     new r_m :   0.0607 (alat units)  1.1939 (a.u.) for type    4

     Initial potential from superposition of free atoms

     starting charge  188.99132, renormalised to  189.00000
     Starting wfcs are  137 randomized atomic wfcs
     Checking if some PAW data can be deallocated... 
       PAW data deallocated on   13 nodes for type:  1
       PAW data deallocated on    4 nodes for type:  3

     total cpu time spent up to now is       85.2 secs

     Self-consistent Calculation

     iteration #  1     ecut=   100.00 Ry     beta= 0.40
     Davidson diagonalization with overlap
     ethr =  1.00E-02,  avg # of iterations =  3.0

     negative rho (up, down):  0.000E+00 6.686E-05

     total cpu time spent up to now is      333.7 secs

     total energy              =   -2123.72860102 Ry
     estimated scf accuracy    <       7.13197082 Ry

     total magnetization       =    19.00 Bohr mag/cell
     absolute magnetization    =    19.00 Bohr mag/cell

     iteration #  2     ecut=   100.00 Ry     beta= 0.40
     Davidson diagonalization with overlap
     ethr =  3.77E-03,  avg # of iterations =  2.0

     negative rho (up, down):  0.000E+00 9.676E-06

     total cpu time spent up to now is      559.3 secs

     total energy              =   -2120.57887670 Ry
     estimated scf accuracy    <      42.32349198 Ry

     total magnetization       =     6.89 Bohr mag/cell
     absolute magnetization    =     9.29 Bohr mag/cell

     iteration #  3     ecut=   100.00 Ry     beta= 0.40
     Davidson diagonalization with overlap
     ethr =  3.77E-03,  avg # of iterations =  2.6

     negative rho (up, down):  0.000E+00 6.085E-06

     total cpu time spent up to now is      760.9 secs

     total energy              =   -2123.94114749 Ry
     estimated scf accuracy    <      42.04451632 Ry

     total magnetization       =     6.84 Bohr mag/cell
     absolute magnetization    =     9.38 Bohr mag/cell

     iteration #  4     ecut=   100.00 Ry     beta= 0.40
     Davidson diagonalization with overlap
     ethr =  3.77E-03,  avg # of iterations =  1.9

     negative rho (up, down):  0.000E+00 4.681E-06

     total cpu time spent up to now is      948.8 secs

     total energy              =   -2124.70207895 Ry
     estimated scf accuracy    <      23.64932440 Ry

     total magnetization       =    11.64 Bohr mag/cell
     absolute magnetization    =    11.95 Bohr mag/cell

     iteration #  5     ecut=   100.00 Ry     beta= 0.40
     Davidson diagonalization with overlap
     ethr =  3.77E-03,  avg # of iterations =  1.5

     negative rho (up, down):  0.000E+00 2.457E-05

     total cpu time spent up to now is     1127.3 secs

     total energy              =   -2125.63481402 Ry
     estimated scf accuracy    <       8.11089739 Ry

     total magnetization       =    14.99 Bohr mag/cell
     absolute magnetization    =    15.19 Bohr mag/cell

     iteration #  6     ecut=   100.00 Ry     beta= 0.40
     Davidson diagonalization with overlap
     ethr =  3.77E-03,  avg # of iterations =  1.5

     negative rho (up, down):  0.000E+00 1.299E-04

     total cpu time spent up to now is     1306.0 secs

     total energy              =   -2125.92902020 Ry
     estimated scf accuracy    <       1.67909660 Ry

     total magnetization       =    18.38 Bohr mag/cell
     absolute magnetization    =    18.39 Bohr mag/cell

     iteration #  7     ecut=   100.00 Ry     beta= 0.40
     Davidson diagonalization with overlap
     ethr =  8.88E-04,  avg # of iterations =  1.4

     negative rho (up, down):  0.000E+00 2.246E-04

     total cpu time spent up to now is     1481.6 secs

     total energy              =   -2125.95488746 Ry
     estimated scf accuracy    <       0.54628336 Ry

     total magnetization       =    19.01 Bohr mag/cell
     absolute magnetization    =    19.01 Bohr mag/cell

     iteration #  8     ecut=   100.00 Ry     beta= 0.40
     Davidson diagonalization with overlap
     ethr =  2.89E-04,  avg # of iterations =  1.5

     negative rho (up, down):  0.000E+00 4.438E-04

     total cpu time spent up to now is     1659.8 secs

     total energy              =   -2125.97619945 Ry
     estimated scf accuracy    <       0.54982187 Ry

     total magnetization       =    19.00 Bohr mag/cell
     absolute magnetization    =    19.00 Bohr mag/cell

     iteration #  9     ecut=   100.00 Ry     beta= 0.40
     Davidson diagonalization with overlap
     ethr =  2.89E-04,  avg # of iterations =  1.3

     negative rho (up, down):  0.000E+00 5.323E-04

     total cpu time spent up to now is     1833.2 secs

     total energy              =   -2125.99252619 Ry
     estimated scf accuracy    <       0.30764421 Ry

     total magnetization       =    19.00 Bohr mag/cell
     absolute magnetization    =    19.01 Bohr mag/cell

     iteration # 10     ecut=   100.00 Ry     beta= 0.40
     Davidson diagonalization with overlap
     ethr =  1.63E-04,  avg # of iterations =  2.0

     negative rho (up, down):  0.000E+00 8.414E-04

     total cpu time spent up to now is     2020.9 secs

     total energy              =   -2125.99020558 Ry
     estimated scf accuracy    <       0.18729095 Ry

     total magnetization       =    19.00 Bohr mag/cell
     absolute magnetization    =    19.01 Bohr mag/cell

     iteration # 11     ecut=   100.00 Ry     beta= 0.40
     Davidson diagonalization with overlap
     c_bands:  1 eigenvalues not converged
     c_bands:  1 eigenvalues not converged
     c_bands:  1 eigenvalues not converged
     c_bands:  1 eigenvalues not converged
     c_bands:  2 eigenvalues not converged
     c_bands:  1 eigenvalues not converged
     ethr =  9.91E-05,  avg # of iterations = 12.3

     negative rho (up, down):  0.000E+00 8.932E-04

     total cpu time spent up to now is     2308.7 secs

     total energy              =   -2126.00013275 Ry
     estimated scf accuracy    <       0.18410155 Ry

     total magnetization       =    19.00 Bohr mag/cell
     absolute magnetization    =    19.03 Bohr mag/cell

     iteration # 12     ecut=   100.00 Ry     beta= 0.40
     Davidson diagonalization with overlap
     ethr =  9.74E-05,  avg # of iterations =  1.2

     negative rho (up, down):  0.000E+00 8.495E-04

     total cpu time spent up to now is     2477.6 secs

     total energy              =   -2125.99750532 Ry
     estimated scf accuracy    <       0.12491390 Ry

     total magnetization       =    19.00 Bohr mag/cell
     absolute magnetization    =    19.03 Bohr mag/cell

     iteration # 13     ecut=   100.00 Ry     beta= 0.40
     Davidson diagonalization with overlap
     ethr =  6.61E-05,  avg # of iterations =  1.4

     negative rho (up, down):  0.000E+00 9.077E-04

     total cpu time spent up to now is     2651.2 secs

     total energy              =   -2126.00031324 Ry
     estimated scf accuracy    <       0.11340542 Ry

     total magnetization       =    19.00 Bohr mag/cell
     absolute magnetization    =    19.03 Bohr mag/cell

     iteration # 14     ecut=   100.00 Ry     beta= 0.40
     Davidson diagonalization with overlap
     ethr =  6.00E-05,  avg # of iterations =  1.0

     negative rho (up, down):  0.000E+00 9.292E-04

     total cpu time spent up to now is     2817.1 secs

     total energy              =   -2126.00081243 Ry
     estimated scf accuracy    <       0.03528933 Ry

     total magnetization       =    19.00 Bohr mag/cell
     absolute magnetization    =    19.04 Bohr mag/cell

     iteration # 15     ecut=   100.00 Ry     beta= 0.40
     Davidson diagonalization with overlap
     c_bands:  1 eigenvalues not converged
     c_bands:  1 eigenvalues not converged
     c_bands:  1 eigenvalues not converged
     c_bands:  1 eigenvalues not converged
     c_bands:  1 eigenvalues not converged
     c_bands:  1 eigenvalues not converged
     c_bands:  1 eigenvalues not converged
     c_bands:  1 eigenvalues not converged
     c_bands:  1 eigenvalues not converged
     ethr =  1.87E-05,  avg # of iterations =  6.0

     negative rho (up, down):  0.000E+00 9.487E-04

     total cpu time spent up to now is     3040.7 secs

     total energy              =   -2126.00174098 Ry
     estimated scf accuracy    <       0.00185139 Ry

     total magnetization       =    19.00 Bohr mag/cell
     absolute magnetization    =    19.04 Bohr mag/cell

     iteration # 16     ecut=   100.00 Ry     beta= 0.40
     Davidson diagonalization with overlap
     c_bands:  1 eigenvalues not converged
     c_bands:  1 eigenvalues not converged
     c_bands:  1 eigenvalues not converged
     c_bands:  1 eigenvalues not converged
     c_bands:  1 eigenvalues not converged
     c_bands:  1 eigenvalues not converged
     c_bands:  1 eigenvalues not converged
     c_bands:  1 eigenvalues not converged
     c_bands:  1 eigenvalues not converged
     c_bands:  1 eigenvalues not converged
     c_bands:  1 eigenvalues not converged
     c_bands:  1 eigenvalues not converged
     c_bands:  1 eigenvalues not converged
     c_bands:  1 eigenvalues not converged
     c_bands:  1 eigenvalues not converged
     c_bands:  1 eigenvalues not converged
     c_bands:  1 eigenvalues not converged
     c_bands:  1 eigenvalues not converged
     c_bands:  1 eigenvalues not converged
     c_bands:  1 eigenvalues not converged
     c_bands:  1 eigenvalues not converged
     ethr =  9.80E-07,  avg # of iterations = 14.5

     negative rho (up, down):  0.000E+00 9.385E-04

     total cpu time spent up to now is     3429.4 secs

     total energy              =   -2126.00218951 Ry
     estimated scf accuracy    <       0.00857837 Ry

     total magnetization       =    19.00 Bohr mag/cell
     absolute magnetization    =    19.04 Bohr mag/cell

     iteration # 17     ecut=   100.00 Ry     beta= 0.40
     Davidson diagonalization with overlap
     ethr =  9.80E-07,  avg # of iterations =  1.1

     negative rho (up, down):  0.000E+00 9.421E-04

     total cpu time spent up to now is     3595.8 secs

     total energy              =   -2126.00228660 Ry
     estimated scf accuracy    <       0.00116947 Ry

     total magnetization       =    19.00 Bohr mag/cell
     absolute magnetization    =    19.05 Bohr mag/cell

     iteration # 18     ecut=   100.00 Ry     beta= 0.40
     Davidson diagonalization with overlap
     ethr =  6.19E-07,  avg # of iterations =  1.0

     negative rho (up, down):  0.000E+00 9.392E-04

     total cpu time spent up to now is     3761.2 secs

     total energy              =   -2126.00233110 Ry
     estimated scf accuracy    <       0.00060253 Ry

     total magnetization       =    19.00 Bohr mag/cell
     absolute magnetization    =    19.05 Bohr mag/cell

     iteration # 19     ecut=   100.00 Ry     beta= 0.40
     Davidson diagonalization with overlap
     ethr =  3.19E-07,  avg # of iterations =  1.0

     negative rho (up, down):  0.000E+00 9.379E-04

     total cpu time spent up to now is     3926.4 secs

     total energy              =   -2126.00235692 Ry
     estimated scf accuracy    <       0.00007394 Ry

     total magnetization       =    19.00 Bohr mag/cell
     absolute magnetization    =    19.05 Bohr mag/cell

     iteration # 20     ecut=   100.00 Ry     beta= 0.40
     Davidson diagonalization with overlap
     ethr =  3.91E-08,  avg # of iterations =  3.0

     negative rho (up, down):  0.000E+00 9.361E-04

     total cpu time spent up to now is     4165.8 secs

     total energy              =   -2126.00237229 Ry
     estimated scf accuracy    <       0.00009378 Ry

     total magnetization       =    19.00 Bohr mag/cell
     absolute magnetization    =    19.05 Bohr mag/cell

     iteration # 21     ecut=   100.00 Ry     beta= 0.40
     Davidson diagonalization with overlap
     ethr =  3.91E-08,  avg # of iterations =  1.0

     negative rho (up, down):  0.000E+00 9.358E-04

     total cpu time spent up to now is     4331.3 secs

     total energy              =   -2126.00237444 Ry
     estimated scf accuracy    <       0.00002383 Ry

     total magnetization       =    19.00 Bohr mag/cell
     absolute magnetization    =    19.05 Bohr mag/cell

     iteration # 22     ecut=   100.00 Ry     beta= 0.40
     Davidson diagonalization with overlap
     ethr =  1.26E-08,  avg # of iterations =  1.5

     negative rho (up, down):  0.000E+00 9.361E-04

     total cpu time spent up to now is     4510.2 secs

     total energy              =   -2126.00237620 Ry
     estimated scf accuracy    <       0.00001052 Ry

     total magnetization       =    19.00 Bohr mag/cell
     absolute magnetization    =    19.05 Bohr mag/cell

     iteration # 23     ecut=   100.00 Ry     beta= 0.40
     Davidson diagonalization with overlap
     ethr =  5.57E-09,  avg # of iterations =  2.2

     negative rho (up, down):  0.000E+00 9.364E-04

     total cpu time spent up to now is     4695.9 secs

     total energy              =   -2126.00237679 Ry
     estimated scf accuracy    <       0.00000414 Ry

     total magnetization       =    19.00 Bohr mag/cell
     absolute magnetization    =    19.05 Bohr mag/cell

     iteration # 24     ecut=   100.00 Ry     beta= 0.40
     Davidson diagonalization with overlap
     ethr =  2.19E-09,  avg # of iterations =  2.8

     negative rho (up, down):  0.000E+00 9.362E-04

     total cpu time spent up to now is     4894.0 secs

     total energy              =   -2126.00237730 Ry
     estimated scf accuracy    <       0.00000032 Ry

     total magnetization       =    19.00 Bohr mag/cell
     absolute magnetization    =    19.05 Bohr mag/cell

     iteration # 25     ecut=   100.00 Ry     beta= 0.40
     Davidson diagonalization with overlap
     ethr =  1.69E-10,  avg # of iterations =  5.0

     negative rho (up, down):  0.000E+00 9.360E-04

     total cpu time spent up to now is     5205.4 secs

     total energy              =   -2126.00237751 Ry
     estimated scf accuracy    <       0.00000007 Ry

     total magnetization       =    19.00 Bohr mag/cell
     absolute magnetization    =    19.05 Bohr mag/cell

     iteration # 26     ecut=   100.00 Ry     beta= 0.40
     Davidson diagonalization with overlap
     ethr =  3.87E-11,  avg # of iterations =  1.7

     negative rho (up, down):  0.000E+00 9.359E-04

     total cpu time spent up to now is     5384.5 secs

     total energy              =   -2126.00237752 Ry
     estimated scf accuracy    <       0.00000003 Ry

     total magnetization       =    19.00 Bohr mag/cell
     absolute magnetization    =    19.05 Bohr mag/cell

     iteration # 27     ecut=   100.00 Ry     beta= 0.40
     Davidson diagonalization with overlap
     ethr =  1.76E-11,  avg # of iterations =  2.1

     negative rho (up, down):  0.000E+00 9.358E-04

     total cpu time spent up to now is     5578.3 secs

     total energy              =   -2126.00237753 Ry
     estimated scf accuracy    <       0.00000009 Ry

     total magnetization       =    19.00 Bohr mag/cell
     absolute magnetization    =    19.05 Bohr mag/cell

     iteration # 28     ecut=   100.00 Ry     beta= 0.40
     Davidson diagonalization with overlap
     ethr =  1.76E-11,  avg # of iterations =  1.0

     negative rho (up, down):  0.000E+00 9.358E-04

     total cpu time spent up to now is     5743.9 secs

     total energy              =   -2126.00237753 Ry
     estimated scf accuracy    <       0.00000002 Ry

     total magnetization       =    19.00 Bohr mag/cell
     absolute magnetization    =    19.05 Bohr mag/cell

     iteration # 29     ecut=   100.00 Ry     beta= 0.40
     Davidson diagonalization with overlap
     ethr =  1.21E-11,  avg # of iterations =  1.0

     negative rho (up, down):  0.000E+00 9.357E-04

     total cpu time spent up to now is     5909.4 secs

     total energy              =   -2126.00237753 Ry
     estimated scf accuracy    <          1.0E-09 Ry

     total magnetization       =    19.00 Bohr mag/cell
     absolute magnetization    =    19.05 Bohr mag/cell

     iteration # 30     ecut=   100.00 Ry     beta= 0.40
     Davidson diagonalization with overlap
     ethr =  5.42E-13,  avg # of iterations =  5.5

     negative rho (up, down):  0.000E+00 9.357E-04

     total cpu time spent up to now is     6250.8 secs

     total energy              =   -2126.00237754 Ry
     estimated scf accuracy    <          3.7E-10 Ry

     total magnetization       =    19.00 Bohr mag/cell
     absolute magnetization    =    19.05 Bohr mag/cell

     iteration # 31     ecut=   100.00 Ry     beta= 0.40
     Davidson diagonalization with overlap
     ethr =  1.96E-13,  avg # of iterations =  2.0

     negative rho (up, down):  0.000E+00 9.358E-04

     Magnetic moment per site:
     atom:    1    charge:    7.8068    magn:    0.0022    constr:    0.0000
     atom:    2    charge:   12.7931    magn:    3.5368    constr:    0.0000
     atom:    3    charge:   12.8136    magn:    3.4478    constr:    0.0000
     atom:    4    charge:   12.7510    magn:    3.6370    constr:    0.0000
     atom:    5    charge:   12.7577    magn:    3.6162    constr:    0.0000
     atom:    6    charge:    0.8290    magn:    0.0129    constr:    0.0000
     atom:    7    charge:    0.8502    magn:    0.0073    constr:    0.0000
     atom:    8    charge:    0.8407    magn:    0.0104    constr:    0.0000
     atom:    9    charge:    0.8389    magn:    0.0109    constr:    0.0000
     atom:   10    charge:    4.2377    magn:    0.1195    constr:    0.0000
     atom:   11    charge:    4.2449    magn:    0.1423    constr:    0.0000
     atom:   12    charge:    4.2422    magn:    0.1105    constr:    0.0000
     atom:   13    charge:    4.2567    magn:    0.1498    constr:    0.0000
     atom:   14    charge:    4.2624    magn:    0.1092    constr:    0.0000
     atom:   15    charge:    4.2383    magn:    0.1489    constr:    0.0000
     atom:   16    charge:    4.2375    magn:    0.0941    constr:    0.0000
     atom:   17    charge:    4.2492    magn:    0.1167    constr:    0.0000
     atom:   18    charge:    4.2386    magn:    0.1104    constr:    0.0000
     atom:   19    charge:    4.2476    magn:    0.0928    constr:    0.0000
     atom:   20    charge:    4.2246    magn:    0.1587    constr:    0.0000
     atom:   21    charge:    4.2280    magn:    0.1390    constr:    0.0000
     atom:   22    charge:    4.2272    magn:    0.1570    constr:    0.0000
     atom:   23    charge:    4.2098    magn:    0.1318    constr:    0.0000
     atom:   24    charge:    4.2263    magn:    0.1229    constr:    0.0000
     atom:   25    charge:    4.2211    magn:    0.1505    constr:    0.0000

     total cpu time spent up to now is     6443.4 secs

     End of self-consistent calculation

 ------ SPIN UP ------------


          k = 0.0000 0.0000 0.0000 ( 36463 PWs)   bands (ev):

   -85.2937 -85.2440 -85.1372 -84.7936 -51.3525 -51.3211 -51.3049 -51.2213
   -51.2150 -51.1856 -51.1671 -51.1487 -51.0620 -50.9805 -50.9194 -50.5352
   -44.6932 -16.9225 -16.7990 -16.7401 -16.2963 -16.0789 -16.0315 -15.8413
   -13.9051 -13.8078 -13.7535 -13.6589 -13.6304 -13.6152 -13.5842 -13.5364
   -13.5107 -13.4686 -13.3552 -13.3011  -4.3196  -3.8186  -3.5381  -3.2459
    -2.2382  -2.0993  -1.9401  -1.7173  -1.5963  -1.5257  -1.3837  -1.3009
    -1.1996  -0.9547  -0.9297  -0.6947  -0.2651  -0.1137  -0.0298   0.1235
     0.3247   0.3388   0.3820   0.5475   0.7689   0.8187   0.9346   0.9633
     1.1299   1.1794   1.2669   1.3508   1.4988   1.5283   1.6875   1.7807
     1.8384   1.9390   1.9463   2.0826   2.1517   2.3192   2.3801   2.4717
     2.5889   2.6035   2.6760   2.7638   2.8820   2.9260   3.0437   3.1885
     3.2417   3.4285   3.4504   3.5026   3.5528   3.6623   3.8218   3.9072
     3.9501   4.0510   4.1677   4.3237   4.4096   4.5335   4.7930   4.9322
     8.8814  10.7723  11.2846  11.5631  12.1949  12.5004  13.0246  13.2766
    13.3145  13.3690

     occupation numbers 
     1.0000   1.0000   1.0000   1.0000   1.0000   1.0000   1.0000   1.0000
     1.0000   1.0000   1.0000   1.0000   1.0000   1.0000   1.0000   1.0000
     1.0000   1.0000   1.0000   1.0000   1.0000   1.0000   1.0000   1.0000
     1.0000   1.0000   1.0000   1.0000   1.0000   1.0000   1.0000   1.0000
     1.0000   1.0000   1.0000   1.0000   1.0000   1.0000   1.0000   1.0000
     1.0000   1.0000   1.0000   1.0000   1.0000   1.0000   1.0000   1.0000
     1.0000   1.0000   1.0000   1.0000   1.0000   1.0000   1.0000   1.0000
     1.0000   1.0000   1.0000   1.0000   1.0000   1.0000   1.0000   1.0000
     1.0000   1.0000   1.0000   1.0000   1.0000   1.0000   1.0000   1.0000
     1.0000   1.0000   1.0000   1.0000   1.0000   1.0000   1.0000   1.0000
     1.0000   1.0000   1.0000   1.0000   1.0000   1.0000   1.0000   1.0000
     1.0000   1.0000   1.0000   1.0000   1.0000   1.0000   1.0000   1.0000
     1.0000   1.0000   1.0000   1.0000   1.0000   1.0000   1.0000   1.0000
     0.0000   0.0000   0.0000   0.0000   0.0000   0.0000   0.0000   0.0000
     0.0000   0.0000

          k = 0.0000 0.0000 0.2337 ( 36493 PWs)   bands (ev):

   -85.2937 -85.2440 -85.1372 -84.7936 -51.3525 -51.3211 -51.3049 -51.2213
   -51.2150 -51.1856 -51.1671 -51.1487 -51.0620 -50.9805 -50.9194 -50.5352
   -44.6932 -16.9202 -16.8031 -16.7445 -16.2790 -16.0738 -16.0234 -15.8411
   -13.9079 -13.8129 -13.7582 -13.6602 -13.6427 -13.6182 -13.5853 -13.5332
   -13.5138 -13.4768 -13.3605 -13.3025  -4.2952  -3.8151  -3.5378  -3.2455
    -2.2169  -2.0942  -1.9210  -1.7000  -1.5964  -1.5171  -1.3832  -1.2854
    -1.1840  -0.9727  -0.9138  -0.7120  -0.2640  -0.1180  -0.0068   0.1378
     0.3137   0.3419   0.3913   0.5450   0.7381   0.8114   0.9252   0.9633
     1.1161   1.1899   1.2729   1.3506   1.4979   1.5460   1.6649   1.7473
     1.8263   1.8841   1.9742   2.0707   2.1533   2.3029   2.3686   2.4780
     2.5907   2.6096   2.6973   2.7306   2.8651   2.9586   3.0421   3.1854
     3.2675   3.3875   3.4509   3.5198   3.5514   3.6485   3.8162   3.9164
     3.9564   4.0442   4.1647   4.3096   4.4232   4.5255   4.7759   4.9281
     9.0199  10.8331  11.3157  11.6039  12.2198  12.4591  12.9680  13.2010
    13.2893  13.3921

     occupation numbers 
     1.0000   1.0000   1.0000   1.0000   1.0000   1.0000   1.0000   1.0000
     1.0000   1.0000   1.0000   1.0000   1.0000   1.0000   1.0000   1.0000
     1.0000   1.0000   1.0000   1.0000   1.0000   1.0000   1.0000   1.0000
     1.0000   1.0000   1.0000   1.0000   1.0000   1.0000   1.0000   1.0000
     1.0000   1.0000   1.0000   1.0000   1.0000   1.0000   1.0000   1.0000
     1.0000   1.0000   1.0000   1.0000   1.0000   1.0000   1.0000   1.0000
     1.0000   1.0000   1.0000   1.0000   1.0000   1.0000   1.0000   1.0000
     1.0000   1.0000   1.0000   1.0000   1.0000   1.0000   1.0000   1.0000
     1.0000   1.0000   1.0000   1.0000   1.0000   1.0000   1.0000   1.0000
     1.0000   1.0000   1.0000   1.0000   1.0000   1.0000   1.0000   1.0000
     1.0000   1.0000   1.0000   1.0000   1.0000   1.0000   1.0000   1.0000
     1.0000   1.0000   1.0000   1.0000   1.0000   1.0000   1.0000   1.0000
     1.0000   1.0000   1.0000   1.0000   1.0000   1.0000   1.0000   1.0000
     0.0000   0.0000   0.0000   0.0000   0.0000   0.0000   0.0000   0.0000
     0.0000   0.0000

          k = 0.0000 0.0000 0.4675 ( 36542 PWs)   bands (ev):

   -85.2937 -85.2440 -85.1372 -84.7936 -51.3525 -51.3211 -51.3049 -51.2213
   -51.2150 -51.1856 -51.1671 -51.1487 -51.0620 -50.9805 -50.9194 -50.5352
   -44.6932 -16.9133 -16.8165 -16.7524 -16.2342 -16.0615 -16.0022 -15.8424
   -13.9154 -13.8324 -13.7674 -13.6745 -13.6587 -13.6267 -13.5883 -13.5389
   -13.5140 -13.4897 -13.3747 -13.3067  -4.2319  -3.7994  -3.5385  -3.2595
    -2.1766  -2.0605  -1.8694  -1.6639  -1.6005  -1.4968  -1.3834  -1.2405
    -1.1332  -1.0021  -0.8915  -0.7617  -0.2400  -0.1212   0.0559   0.1760
     0.2889   0.3400   0.4260   0.5542   0.6937   0.7759   0.9101   0.9525
     1.1053   1.2067   1.2689   1.3357   1.4556   1.5452   1.5790   1.7180
     1.7660   1.8425   1.9690   2.0234   2.1666   2.2805   2.3548   2.4889
     2.5684   2.5984   2.6443   2.7520   2.8859   2.9665   3.0540   3.1625
     3.2707   3.3600   3.4845   3.5509   3.5758   3.6249   3.8131   3.9399
     3.9609   4.0316   4.1517   4.2914   4.4364   4.5145   4.7283   4.9196
     9.3916  10.9814  11.3744  11.7250  12.1855  12.4548  12.8564  12.9930
    13.2402  13.3497

     occupation numbers 
     1.0000   1.0000   1.0000   1.0000   1.0000   1.0000   1.0000   1.0000
     1.0000   1.0000   1.0000   1.0000   1.0000   1.0000   1.0000   1.0000
     1.0000   1.0000   1.0000   1.0000   1.0000   1.0000   1.0000   1.0000
     1.0000   1.0000   1.0000   1.0000   1.0000   1.0000   1.0000   1.0000
     1.0000   1.0000   1.0000   1.0000   1.0000   1.0000   1.0000   1.0000
     1.0000   1.0000   1.0000   1.0000   1.0000   1.0000   1.0000   1.0000
     1.0000   1.0000   1.0000   1.0000   1.0000   1.0000   1.0000   1.0000
     1.0000   1.0000   1.0000   1.0000   1.0000   1.0000   1.0000   1.0000
     1.0000   1.0000   1.0000   1.0000   1.0000   1.0000   1.0000   1.0000
     1.0000   1.0000   1.0000   1.0000   1.0000   1.0000   1.0000   1.0000
     1.0000   1.0000   1.0000   1.0000   1.0000   1.0000   1.0000   1.0000
     1.0000   1.0000   1.0000   1.0000   1.0000   1.0000   1.0000   1.0000
     1.0000   1.0000   1.0000   1.0000   1.0000   1.0000   1.0000   1.0000
     0.0000   0.0000   0.0000   0.0000   0.0000   0.0000   0.0000   0.0000
     0.0000   0.0000

          k = 0.0000 0.0000 0.7012 ( 36506 PWs)   bands (ev):

   -85.2937 -85.2440 -85.1372 -84.7936 -51.3526 -51.3211 -51.3049 -51.2213
   -51.2150 -51.1856 -51.1671 -51.1487 -51.0620 -50.9805 -50.9194 -50.5352
   -44.6932 -16.9021 -16.8374 -16.7575 -16.1786 -16.0497 -15.9768 -15.8479
   -13.9226 -13.8656 -13.7745 -13.7026 -13.6608 -13.6347 -13.5933 -13.5675
   -13.5031 -13.4878 -13.3941 -13.3127  -4.1576  -3.7602  -3.5504  -3.3002
    -2.1494  -2.0067  -1.7924  -1.6377  -1.6070  -1.4777  -1.3744  -1.1840
    -1.1049  -0.9895  -0.8846  -0.8167  -0.1689  -0.1059   0.1349   0.2160
     0.2950   0.3433   0.4757   0.5636   0.6844   0.7515   0.8780   0.9465
     1.0845   1.1857   1.2124   1.2792   1.3307   1.4356   1.5722   1.6894
     1.6937   1.8329   1.9459   1.9773   2.1887   2.2789   2.3792   2.4607
     2.5003   2.5548   2.6765   2.6971   2.8822   2.9653   3.0707   3.1426
     3.2875   3.3356   3.4955   3.6056   3.6286   3.6936   3.8200   3.9464
     3.9711   4.0243   4.1340   4.2843   4.4277   4.5075   4.6669   4.9132
     9.9019  11.0925  11.4373  11.7542  12.1456  12.5398  12.7500  12.8298
    13.1031  13.2479

     occupation numbers 
     1.0000   1.0000   1.0000   1.0000   1.0000   1.0000   1.0000   1.0000
     1.0000   1.0000   1.0000   1.0000   1.0000   1.0000   1.0000   1.0000
     1.0000   1.0000   1.0000   1.0000   1.0000   1.0000   1.0000   1.0000
     1.0000   1.0000   1.0000   1.0000   1.0000   1.0000   1.0000   1.0000
     1.0000   1.0000   1.0000   1.0000   1.0000   1.0000   1.0000   1.0000
     1.0000   1.0000   1.0000   1.0000   1.0000   1.0000   1.0000   1.0000
     1.0000   1.0000   1.0000   1.0000   1.0000   1.0000   1.0000   1.0000
     1.0000   1.0000   1.0000   1.0000   1.0000   1.0000   1.0000   1.0000
     1.0000   1.0000   1.0000   1.0000   1.0000   1.0000   1.0000   1.0000
     1.0000   1.0000   1.0000   1.0000   1.0000   1.0000   1.0000   1.0000
     1.0000   1.0000   1.0000   1.0000   1.0000   1.0000   1.0000   1.0000
     1.0000   1.0000   1.0000   1.0000   1.0000   1.0000   1.0000   1.0000
     1.0000   1.0000   1.0000   1.0000   1.0000   1.0000   1.0000   1.0000
     0.0000   0.0000   0.0000   0.0000   0.0000   0.0000   0.0000   0.0000
     0.0000   0.0000

          k = 0.0000 0.0000 0.9349 ( 36496 PWs)   bands (ev):

   -85.2937 -85.2440 -85.1372 -84.7936 -51.3526 -51.3211 -51.3049 -51.2213
   -51.2150 -51.1856 -51.1671 -51.1487 -51.0620 -50.9805 -50.9194 -50.5352
   -44.6932 -16.8882 -16.8581 -16.7594 -16.1365 -16.0454 -15.9591 -15.8551
   -13.9223 -13.8957 -13.7800 -13.7190 -13.6604 -13.6406 -13.5976 -13.5885
   -13.4999 -13.4724 -13.4123 -13.3172  -4.1092  -3.6980  -3.5868  -3.3401
    -2.1322  -1.9803  -1.7201  -1.6389  -1.6098  -1.4656  -1.3590  -1.1464
    -1.1209  -0.9683  -0.8762  -0.8367  -0.1371  -0.0069   0.1746   0.2011
     0.3247   0.3923   0.5502   0.6167   0.6894   0.7403   0.8077   0.9085
     0.9940   1.0542   1.1345   1.2403   1.3076   1.3957   1.5661   1.6551
     1.6930   1.8045   1.9326   1.9808   2.1932   2.2671   2.3533   2.4462
     2.4833   2.5690   2.6291   2.6908   2.8537   2.9664   3.0706   3.1517
     3.2818   3.3456   3.4856   3.6140   3.6622   3.8025   3.8771   3.9421
     3.9567   4.0360   4.1221   4.2803   4.4008   4.4914   4.6324   4.9106
    10.4511  10.9198  11.4636  11.7017  12.2668  12.4610  12.6618  12.9278
    13.0495  13.1598

     occupation numbers 
     1.0000   1.0000   1.0000   1.0000   1.0000   1.0000   1.0000   1.0000
     1.0000   1.0000   1.0000   1.0000   1.0000   1.0000   1.0000   1.0000
     1.0000   1.0000   1.0000   1.0000   1.0000   1.0000   1.0000   1.0000
     1.0000   1.0000   1.0000   1.0000   1.0000   1.0000   1.0000   1.0000
     1.0000   1.0000   1.0000   1.0000   1.0000   1.0000   1.0000   1.0000
     1.0000   1.0000   1.0000   1.0000   1.0000   1.0000   1.0000   1.0000
     1.0000   1.0000   1.0000   1.0000   1.0000   1.0000   1.0000   1.0000
     1.0000   1.0000   1.0000   1.0000   1.0000   1.0000   1.0000   1.0000
     1.0000   1.0000   1.0000   1.0000   1.0000   1.0000   1.0000   1.0000
     1.0000   1.0000   1.0000   1.0000   1.0000   1.0000   1.0000   1.0000
     1.0000   1.0000   1.0000   1.0000   1.0000   1.0000   1.0000   1.0000
     1.0000   1.0000   1.0000   1.0000   1.0000   1.0000   1.0000   1.0000
     1.0000   1.0000   1.0000   1.0000   1.0000   1.0000   1.0000   1.0000
     0.0000   0.0000   0.0000   0.0000   0.0000   0.0000   0.0000   0.0000
     0.0000   0.0000

          k = 0.0000 0.2391 0.0000 ( 36485 PWs)   bands (ev):

   -85.2937 -85.2440 -85.1372 -84.7936 -51.3525 -51.3211 -51.3049 -51.2213
   -51.2150 -51.1856 -51.1671 -51.1487 -51.0620 -50.9805 -50.9194 -50.5352
   -44.6932 -16.9278 -16.7988 -16.7400 -16.2740 -16.0739 -16.0302 -15.8592
   -13.9110 -13.8139 -13.7560 -13.6707 -13.6289 -13.6174 -13.5931 -13.5235
   -13.5002 -13.4727 -13.3535 -13.2993  -4.2942  -3.8002  -3.5567  -3.2518
    -2.2195  -2.0740  -1.9376  -1.7018  -1.6001  -1.5293  -1.3464  -1.2926
    -1.1845  -0.9526  -0.9221  -0.6916  -0.2708  -0.1221  -0.0189   0.1287
     0.2798   0.3548   0.4019   0.4916   0.7117   0.8400   0.9225   1.0416
     1.1272   1.1717   1.2320   1.3386   1.4636   1.5274   1.6429   1.7310
     1.7798   1.9308   2.0055   2.0743   2.1979   2.3174   2.4081   2.4588
     2.5799   2.5979   2.6784   2.7537   2.8254   2.9634   3.0436   3.1288
     3.2413   3.3305   3.4377   3.5282   3.6033   3.6880   3.8103   3.9192
     3.9456   4.0443   4.1764   4.3014   4.3858   4.5606   4.8297   4.9519
     9.0332  10.8738  11.3249  11.5254  12.2229  12.5332  12.9744  13.2303
    13.3723  13.4151

     occupation numbers 
     1.0000   1.0000   1.0000   1.0000   1.0000   1.0000   1.0000   1.0000
     1.0000   1.0000   1.0000   1.0000   1.0000   1.0000   1.0000   1.0000
     1.0000   1.0000   1.0000   1.0000   1.0000   1.0000   1.0000   1.0000
     1.0000   1.0000   1.0000   1.0000   1.0000   1.0000   1.0000   1.0000
     1.0000   1.0000   1.0000   1.0000   1.0000   1.0000   1.0000   1.0000
     1.0000   1.0000   1.0000   1.0000   1.0000   1.0000   1.0000   1.0000
     1.0000   1.0000   1.0000   1.0000   1.0000   1.0000   1.0000   1.0000
     1.0000   1.0000   1.0000   1.0000   1.0000   1.0000   1.0000   1.0000
     1.0000   1.0000   1.0000   1.0000   1.0000   1.0000   1.0000   1.0000
     1.0000   1.0000   1.0000   1.0000   1.0000   1.0000   1.0000   1.0000
     1.0000   1.0000   1.0000   1.0000   1.0000   1.0000   1.0000   1.0000
     1.0000   1.0000   1.0000   1.0000   1.0000   1.0000   1.0000   1.0000
     1.0000   1.0000   1.0000   1.0000   1.0000   1.0000   1.0000   1.0000
     0.0000   0.0000   0.0000   0.0000   0.0000   0.0000   0.0000   0.0000
     0.0000   0.0000

          k = 0.0000 0.2391 0.2337 ( 36495 PWs)   bands (ev):

   -85.2937 -85.2440 -85.1372 -84.7936 -51.3525 -51.3211 -51.3049 -51.2213
   -51.2150 -51.1856 -51.1671 -51.1487 -51.0620 -50.9805 -50.9194 -50.5352
   -44.6932 -16.9269 -16.8016 -16.7440 -16.2564 -16.0682 -16.0206 -15.8617
   -13.9130 -13.8133 -13.7710 -13.6723 -13.6381 -13.6215 -13.5943 -13.5295
   -13.4999 -13.4672 -13.3621 -13.3032  -4.2624  -3.7983  -3.5521  -3.2633
    -2.1953  -2.0780  -1.9205  -1.6696  -1.5955  -1.5318  -1.3635  -1.2681
    -1.1669  -0.9733  -0.9096  -0.6878  -0.2832  -0.1118  -0.0136   0.1476
     0.2680   0.3546   0.4217   0.4610   0.7212   0.8335   0.9275   1.0428
     1.0978   1.1781   1.2439   1.3430   1.4567   1.5361   1.5863   1.7131
     1.7569   1.8924   2.0388   2.0900   2.1757   2.3079   2.3712   2.4787
     2.5750   2.6383   2.7102   2.7418   2.8121   2.9661   3.0162   3.1258
     3.2865   3.2981   3.4339   3.5123   3.6018   3.6773   3.8077   3.9203
     3.9596   4.0364   4.1647   4.2724   4.4433   4.5277   4.8220   4.9455
     9.1571  10.9282  11.3659  11.5839  12.2558  12.5184  12.9197  13.1635
    13.2977  13.4435

     occupation numbers 
     1.0000   1.0000   1.0000   1.0000   1.0000   1.0000   1.0000   1.0000
     1.0000   1.0000   1.0000   1.0000   1.0000   1.0000   1.0000   1.0000
     1.0000   1.0000   1.0000   1.0000   1.0000   1.0000   1.0000   1.0000
     1.0000   1.0000   1.0000   1.0000   1.0000   1.0000   1.0000   1.0000
     1.0000   1.0000   1.0000   1.0000   1.0000   1.0000   1.0000   1.0000
     1.0000   1.0000   1.0000   1.0000   1.0000   1.0000   1.0000   1.0000
     1.0000   1.0000   1.0000   1.0000   1.0000   1.0000   1.0000   1.0000
     1.0000   1.0000   1.0000   1.0000   1.0000   1.0000   1.0000   1.0000
     1.0000   1.0000   1.0000   1.0000   1.0000   1.0000   1.0000   1.0000
     1.0000   1.0000   1.0000   1.0000   1.0000   1.0000   1.0000   1.0000
     1.0000   1.0000   1.0000   1.0000   1.0000   1.0000   1.0000   1.0000
     1.0000   1.0000   1.0000   1.0000   1.0000   1.0000   1.0000   1.0000
     1.0000   1.0000   1.0000   1.0000   1.0000   1.0000   1.0000   1.0000
     0.0000   0.0000   0.0000   0.0000   0.0000   0.0000   0.0000   0.0000
     0.0000   0.0000

          k = 0.0000 0.2391 0.4675 ( 36500 PWs)   bands (ev):

   -85.2937 -85.2440 -85.1372 -84.7936 -51.3525 -51.3211 -51.3049 -51.2213
   -51.2150 -51.1856 -51.1671 -51.1487 -51.0620 -50.9805 -50.9194 -50.5352
   -44.6932 -16.9205 -16.8133 -16.7520 -16.2140 -16.0533 -16.0004 -15.8628
   -13.9186 -13.8341 -13.7781 -13.6884 -13.6575 -13.6246 -13.5970 -13.5512
   -13.5019 -13.4640 -13.3767 -13.3091  -4.1955  -3.7829  -3.5445  -3.2879
    -2.1534  -2.0464  -1.8693  -1.6276  -1.6010  -1.5080  -1.3737  -1.2234
    -1.1235  -0.9947  -0.8996  -0.7193  -0.2690  -0.1157   0.0337   0.1814
     0.2512   0.3468   0.4248   0.5143   0.7117   0.7664   0.9242   1.0258
     1.0731   1.1727   1.2599   1.3261   1.4377   1.5130   1.5718   1.6710
     1.6978   1.8702   2.0043   2.0709   2.1687   2.3071   2.3256   2.4648
     2.5355   2.6291   2.6918   2.7419   2.8578   2.9497   3.0070   3.1267
     3.2680   3.3317   3.4315   3.5093   3.6318   3.6571   3.8045   3.9291
     3.9825   4.0149   4.1541   4.2639   4.4741   4.4965   4.7906   4.9411
     9.5064  11.0812  11.4262  11.7398  12.2466  12.5192  12.8173  12.9903
    13.2413  13.2973

     occupation numbers 
     1.0000   1.0000   1.0000   1.0000   1.0000   1.0000   1.0000   1.0000
     1.0000   1.0000   1.0000   1.0000   1.0000   1.0000   1.0000   1.0000
     1.0000   1.0000   1.0000   1.0000   1.0000   1.0000   1.0000   1.0000
     1.0000   1.0000   1.0000   1.0000   1.0000   1.0000   1.0000   1.0000
     1.0000   1.0000   1.0000   1.0000   1.0000   1.0000   1.0000   1.0000
     1.0000   1.0000   1.0000   1.0000   1.0000   1.0000   1.0000   1.0000
     1.0000   1.0000   1.0000   1.0000   1.0000   1.0000   1.0000   1.0000
     1.0000   1.0000   1.0000   1.0000   1.0000   1.0000   1.0000   1.0000
     1.0000   1.0000   1.0000   1.0000   1.0000   1.0000   1.0000   1.0000
     1.0000   1.0000   1.0000   1.0000   1.0000   1.0000   1.0000   1.0000
     1.0000   1.0000   1.0000   1.0000   1.0000   1.0000   1.0000   1.0000
     1.0000   1.0000   1.0000   1.0000   1.0000   1.0000   1.0000   1.0000
     1.0000   1.0000   1.0000   1.0000   1.0000   1.0000   1.0000   1.0000
     0.0000   0.0000   0.0000   0.0000   0.0000   0.0000   0.0000   0.0000
     0.0000   0.0000

          k = 0.0000 0.2391 0.7012 ( 36515 PWs)   bands (ev):

   -85.2937 -85.2440 -85.1372 -84.7936 -51.3526 -51.3211 -51.3049 -51.2213
   -51.2150 -51.1856 -51.1671 -51.1487 -51.0620 -50.9805 -50.9194 -50.5352
   -44.6932 -16.9089 -16.8330 -16.7572 -16.1631 -16.0383 -15.9780 -15.8645
   -13.9237 -13.8714 -13.7762 -13.7161 -13.6687 -13.6275 -13.6017 -13.5806
   -13.5037 -13.4552 -13.3936 -13.3155  -4.1244  -3.7436  -3.5481  -3.3276
    -2.1268  -1.9916  -1.7915  -1.6188  -1.5954  -1.4766  -1.3639  -1.1777
    -1.1141  -0.9653  -0.8952  -0.7767  -0.1932  -0.1171   0.0866   0.1934
     0.2594   0.3701   0.4810   0.5641   0.6848   0.7474   0.8756   1.0009
     1.0630   1.1717   1.2193   1.2779   1.3633   1.4303   1.5540   1.5975
     1.6690   1.8606   1.9333   2.0068   2.2211   2.2494   2.3899   2.4493
     2.4830   2.5688   2.6575   2.7183   2.8536   2.9610   3.0071   3.1353
     3.2827   3.2998   3.4352   3.5785   3.6327   3.7188   3.8131   3.9314
     3.9825   4.0218   4.1476   4.2700   4.4281   4.5259   4.7465   4.9408
     9.9938  11.2222  11.4858  11.8191  12.1872  12.5761  12.7295  12.9021
    13.0515  13.2011

     occupation numbers 
     1.0000   1.0000   1.0000   1.0000   1.0000   1.0000   1.0000   1.0000
     1.0000   1.0000   1.0000   1.0000   1.0000   1.0000   1.0000   1.0000
     1.0000   1.0000   1.0000   1.0000   1.0000   1.0000   1.0000   1.0000
     1.0000   1.0000   1.0000   1.0000   1.0000   1.0000   1.0000   1.0000
     1.0000   1.0000   1.0000   1.0000   1.0000   1.0000   1.0000   1.0000
     1.0000   1.0000   1.0000   1.0000   1.0000   1.0000   1.0000   1.0000
     1.0000   1.0000   1.0000   1.0000   1.0000   1.0000   1.0000   1.0000
     1.0000   1.0000   1.0000   1.0000   1.0000   1.0000   1.0000   1.0000
     1.0000   1.0000   1.0000   1.0000   1.0000   1.0000   1.0000   1.0000
     1.0000   1.0000   1.0000   1.0000   1.0000   1.0000   1.0000   1.0000
     1.0000   1.0000   1.0000   1.0000   1.0000   1.0000   1.0000   1.0000
     1.0000   1.0000   1.0000   1.0000   1.0000   1.0000   1.0000   1.0000
     1.0000   1.0000   1.0000   1.0000   1.0000   1.0000   1.0000   1.0000
     0.0000   0.0000   0.0000   0.0000   0.0000   0.0000   0.0000   0.0000
     0.0000   0.0000

          k = 0.0000 0.2391 0.9349 ( 36488 PWs)   bands (ev):

   -85.2937 -85.2440 -85.1372 -84.7936 -51.3526 -51.3211 -51.3049 -51.2213
   -51.2150 -51.1856 -51.1671 -51.1487 -51.0620 -50.9805 -50.9194 -50.5352
   -44.6932 -16.8932 -16.8544 -16.7593 -16.1253 -16.0344 -15.9631 -15.8644
   -13.9238 -13.9009 -13.7785 -13.7306 -13.6728 -13.6339 -13.6079 -13.5947
   -13.5064 -13.4459 -13.4068 -13.3190  -4.0858  -3.6867  -3.5815  -3.3459
    -2.1115  -1.9679  -1.7196  -1.6255  -1.5986  -1.4534  -1.3386  -1.1560
    -1.1144  -0.9541  -0.8743  -0.8274  -0.1530  -0.0464   0.0869   0.1840
     0.3179   0.4529   0.5378   0.6079   0.6812   0.7479   0.8015   0.9549
     1.0330   1.0857   1.1236   1.2285   1.3310   1.3848   1.5196   1.5758
     1.6929   1.8497   1.9037   2.0034   2.1812   2.2514   2.3422   2.4440
     2.4914   2.5672   2.6125   2.7071   2.8354   2.9595   3.0217   3.1370
     3.2636   3.3014   3.4356   3.5903   3.6524   3.8051   3.8507   3.9326
     3.9529   4.0585   4.1387   4.2908   4.3757   4.5428   4.7270   4.9334
    10.5242  11.0604  11.5420  11.7408  12.3067  12.5010  12.6928  12.9183
    13.0433  13.1448

     occupation numbers 
     1.0000   1.0000   1.0000   1.0000   1.0000   1.0000   1.0000   1.0000
     1.0000   1.0000   1.0000   1.0000   1.0000   1.0000   1.0000   1.0000
     1.0000   1.0000   1.0000   1.0000   1.0000   1.0000   1.0000   1.0000
     1.0000   1.0000   1.0000   1.0000   1.0000   1.0000   1.0000   1.0000
     1.0000   1.0000   1.0000   1.0000   1.0000   1.0000   1.0000   1.0000
     1.0000   1.0000   1.0000   1.0000   1.0000   1.0000   1.0000   1.0000
     1.0000   1.0000   1.0000   1.0000   1.0000   1.0000   1.0000   1.0000
     1.0000   1.0000   1.0000   1.0000   1.0000   1.0000   1.0000   1.0000
     1.0000   1.0000   1.0000   1.0000   1.0000   1.0000   1.0000   1.0000
     1.0000   1.0000   1.0000   1.0000   1.0000   1.0000   1.0000   1.0000
     1.0000   1.0000   1.0000   1.0000   1.0000   1.0000   1.0000   1.0000
     1.0000   1.0000   1.0000   1.0000   1.0000   1.0000   1.0000   1.0000
     1.0000   1.0000   1.0000   1.0000   1.0000   1.0000   1.0000   1.0000
     0.0000   0.0000   0.0000   0.0000   0.0000   0.0000   0.0000   0.0000
     0.0000   0.0000

          k = 0.0000 0.4781 0.0000 ( 36507 PWs)   bands (ev):

   -85.2937 -85.2440 -85.1372 -84.7936 -51.3525 -51.3211 -51.3049 -51.2213
   -51.2150 -51.1856 -51.1671 -51.1487 -51.0620 -50.9805 -50.9194 -50.5352
   -44.6932 -16.9390 -16.7981 -16.7398 -16.2147 -16.0634 -16.0293 -15.9065
   -13.9240 -13.8322 -13.7596 -13.6928 -13.6268 -13.6117 -13.5886 -13.5371
   -13.5050 -13.4459 -13.3518 -13.2947  -4.2321  -3.7603  -3.5988  -3.2693
    -2.1763  -2.0168  -1.9344  -1.6736  -1.5921  -1.5107  -1.3620  -1.1834
    -1.1401  -0.9573  -0.9008  -0.7034  -0.2599  -0.1666   0.0091   0.1400
     0.2000   0.3333   0.4256   0.4806   0.5941   0.8470   0.9298   1.0564
     1.1056   1.1449   1.2001   1.2830   1.3856   1.5178   1.6048   1.7288
     1.7899   1.9205   2.0005   2.0523   2.1753   2.3581   2.3884   2.4860
     2.5182   2.5926   2.6848   2.7697   2.8343   2.8879   3.0112   3.0772
     3.2202   3.2700   3.4221   3.5603   3.5839   3.7102   3.8265   3.9348
     3.9470   4.0386   4.1861   4.1926   4.4386   4.6160   4.8664   5.0011
     9.4409  11.0585  11.2094  11.6513  12.1910  12.5721  12.9238  13.2287
    13.3610  13.5005

     occupation numbers 
     1.0000   1.0000   1.0000   1.0000   1.0000   1.0000   1.0000   1.0000
     1.0000   1.0000   1.0000   1.0000   1.0000   1.0000   1.0000   1.0000
     1.0000   1.0000   1.0000   1.0000   1.0000   1.0000   1.0000   1.0000
     1.0000   1.0000   1.0000   1.0000   1.0000   1.0000   1.0000   1.0000
     1.0000   1.0000   1.0000   1.0000   1.0000   1.0000   1.0000   1.0000
     1.0000   1.0000   1.0000   1.0000   1.0000   1.0000   1.0000   1.0000
     1.0000   1.0000   1.0000   1.0000   1.0000   1.0000   1.0000   1.0000
     1.0000   1.0000   1.0000   1.0000   1.0000   1.0000   1.0000   1.0000
     1.0000   1.0000   1.0000   1.0000   1.0000   1.0000   1.0000   1.0000
     1.0000   1.0000   1.0000   1.0000   1.0000   1.0000   1.0000   1.0000
     1.0000   1.0000   1.0000   1.0000   1.0000   1.0000   1.0000   1.0000
     1.0000   1.0000   1.0000   1.0000   1.0000   1.0000   1.0000   1.0000
     1.0000   1.0000   1.0000   1.0000   1.0000   1.0000   1.0000   1.0000
     0.0000   0.0000   0.0000   0.0000   0.0000   0.0000   0.0000   0.0000
     0.0000   0.0000

          k = 0.0000 0.4781 0.2337 ( 36461 PWs)   bands (ev):

   -85.2937 -85.2440 -85.1372 -84.7936 -51.3525 -51.3211 -51.3049 -51.2213
   -51.2150 -51.1856 -51.1671 -51.1487 -51.0620 -50.9805 -50.9194 -50.5352
   -44.6932 -16.9376 -16.8006 -16.7436 -16.1994 -16.0573 -16.0181 -15.9094
   -13.9250 -13.8310 -13.7767 -13.6920 -13.6327 -13.6187 -13.5925 -13.5472
   -13.5035 -13.4387 -13.3579 -13.3002  -4.1989  -3.7612  -3.5861  -3.2851
    -2.1549  -2.0237  -1.9151  -1.6421  -1.5926  -1.5019  -1.3579  -1.1818
    -1.1291  -0.9687  -0.9038  -0.6876  -0.2790  -0.1430   0.0017   0.1415
     0.1877   0.3360   0.4169   0.4823   0.6244   0.8736   0.9120   1.0046
     1.0598   1.1422   1.2297   1.3217   1.3884   1.4962   1.5899   1.7092
[...]
     atom   15 type  3   force =    -0.00254706   -0.00037574   -0.00082568
     atom   16 type  3   force =    -0.00275345   -0.00053389    0.00315898
     atom   17 type  3   force =    -0.00190758    0.00151267   -0.00194533
     atom   18 type  3   force =     0.00158533   -0.00241493   -0.00214360
     atom   19 type  3   force =    -0.00028421    0.00089744    0.00186410
     atom   20 type  3   force =    -0.00120359    0.00059602   -0.00053166
     atom   21 type  3   force =     0.00297508    0.00079536   -0.00003237
     atom   22 type  3   force =    -0.00153458   -0.00012457   -0.00077543
     atom   23 type  3   force =    -0.00179269    0.00125596   -0.00135453
     atom   24 type  3   force =    -0.00028604    0.00107392   -0.00190486
     atom   25 type  3   force =    -0.00113024    0.00075429    0.00134765
     The non-local contrib.  to forces
     atom    1 type  2   force =    -0.03921518   -0.02827870   -0.12294214
     atom    2 type  1   force =    -0.08663048    0.23635721    0.14319163
     atom    3 type  1   force =     0.19655962    0.12655757   -0.19737766
     atom    4 type  1   force =    -0.07440228   -0.18398939   -0.00474689
     atom    5 type  1   force =     0.05591871   -0.11494467   -0.19315362
     atom    6 type  4   force =     0.01413702   -0.02536904   -0.03304145
     atom    7 type  4   force =     0.00404581   -0.05164975    0.02472836
     atom    8 type  4   force =     0.02962282   -0.01570475    0.03625621
     atom    9 type  4   force =    -0.04099623    0.02057470    0.04399441
     atom   10 type  3   force =    -0.07886465   -0.28996863   -1.35784998
     atom   11 type  3   force =     0.54753879    0.17145395   -1.38093531
     atom   12 type  3   force =    -0.28732557    0.10021191    1.51740897
     atom   13 type  3   force =     0.29749909   -0.15138645    1.46260931
     atom   14 type  3   force =     1.14679089   -0.06567511   -0.48465047
     atom   15 type  3   force =    -1.15860608   -0.13321918   -0.98293707
     atom   16 type  3   force =    -1.32235578    0.73855965    0.07301725
     atom   17 type  3   force =     1.24443620    0.20127871    0.28728742
     atom   18 type  3   force =    -0.26110379   -0.87349279    1.11575367
     atom   19 type  3   force =     0.50640048    1.38536381    0.57743326
     atom   20 type  3   force =     0.61364207   -1.21755658   -0.70323601
     atom   21 type  3   force =    -0.40129668    1.07312939   -1.00264845
     atom   22 type  3   force =     0.38814733    1.11084983   -0.81235138
     atom   23 type  3   force =    -0.49922108   -1.22488633   -0.69007174
     atom   24 type  3   force =    -0.40364608    0.83199537    0.80417951
     atom   25 type  3   force =    -0.13602715   -1.56699708    1.17529371
     The ionic contribution  to forces
     atom    1 type  2   force =     4.87477746   -1.07379507    0.01565419
     atom    2 type  1   force =    -7.59335674    8.97901061   -0.28802575
     atom    3 type  1   force =   -10.15620064   -0.59816218   -2.00795766
     atom    4 type  1   force =    -0.11948384   -3.07194769    4.38364651
     atom    5 type  1   force =     8.11867891   -1.45191818   -2.25568883
     atom    6 type  4   force =    -3.66068013    0.93705754    0.05529870
     atom    7 type  4   force =     4.19305215   -2.87993209   -2.22395269
     atom    8 type  4   force =     3.34861012    0.12322734   -0.65191802
     atom    9 type  4   force =    -0.68186012    0.66074442    0.59605676
     atom   10 type  3   force =    -8.76449755    5.35363511    2.88957692
     atom   11 type  3   force =     0.49820937   -6.27504869    4.94927027
     atom   12 type  3   force =     8.82670734   -0.30788786   -3.04646449
     atom   13 type  3   force =    -7.25936466    0.83751377   -1.90021539
     atom   14 type  3   force =     2.83466390    2.16575974    4.71802905
     atom   15 type  3   force =    -2.02139751    0.02612633   10.01700478
     atom   16 type  3   force =    -0.33258094   -3.98256159   -4.94488467
     atom   17 type  3   force =     2.49431313   -0.73065713   -4.30472700
     atom   18 type  3   force =    -5.85834640   -2.00975009   -7.27467539
     atom   19 type  3   force =     4.45477477   -8.32212678    2.07650397
     atom   20 type  3   force =     4.17251969    4.44075637    1.67955083
     atom   21 type  3   force =    -1.56015433   -0.79696457    5.95948773
     atom   22 type  3   force =     5.80244950   -3.55493665    3.25984784
     atom   23 type  3   force =    -1.65486023    4.54645947    1.11153937
     atom   24 type  3   force =    -6.57336037    1.72129686   -2.85969584
     atom   25 type  3   force =     6.61738712    5.26410102   -9.95326119
     The local contribution  to forces
     atom    1 type  2   force =    -4.82293928    1.10433479    0.12017430
     atom    2 type  1   force =     7.67661492   -9.21264265    0.14344105
     atom    3 type  1   force =     9.96170536    0.47302799    2.20135921
     atom    4 type  1   force =     0.19454635    3.25305676   -4.37928265
     atom    5 type  1   force =    -8.17326767    1.56366977    2.44700482
     atom    6 type  4   force =     3.64925274   -0.91157998   -0.02809015
     atom    7 type  4   force =    -4.19815555    2.92602906    2.20127187
     atom    8 type  4   force =    -3.37316280   -0.10911904    0.61805459
     atom    9 type  4   force =     0.72178437   -0.68018636   -0.63725633
     atom   10 type  3   force =     8.84245247   -5.06611502   -1.54394417
     atom   11 type  3   force =    -1.04487405    6.10712195   -3.57995838
     atom   12 type  3   force =    -8.54357771    0.20773068    1.54103044
     atom   13 type  3   force =     6.96515516   -0.68818571    0.44922277
     atom   14 type  3   force =    -3.97155155   -2.10474107   -4.23893497
     atom   15 type  3   force =     3.16757022    0.10547190   -9.04425766
     atom   16 type  3   force =     1.64098219    3.25018096    4.87622560
     atom   17 type  3   force =    -3.73022991    0.53275536    4.01837580
     atom   18 type  3   force =     6.11878428    2.87365169    6.16714611
     atom   19 type  3   force =    -4.95751241    6.95037517   -2.64710523
     atom   20 type  3   force =    -4.78211788   -3.23318022   -0.98314260
     atom   21 type  3   force =     1.96103943   -0.26627543   -4.96619258
     atom   22 type  3   force =    -6.18891939    2.45348825   -2.45566480
     atom   23 type  3   force =     2.14802954   -3.33117244   -0.42892535
     atom   24 type  3   force =     6.97318397   -2.54507244    2.06090515
     atom   25 type  3   force =    -6.48392123   -3.71010376    8.79015964
     The core correction contribution to forces
     atom    1 type  2   force =     0.00000000    0.00000000    0.00000000
     atom    2 type  1   force =     0.00015096   -0.00163827    0.00046498
     atom    3 type  1   force =    -0.00232898   -0.00052625    0.00207014
     atom    4 type  1   force =     0.00129506    0.00125811    0.00027482
     atom    5 type  1   force =    -0.00044422    0.00117320    0.00024991
     atom    6 type  4   force =    -0.00141825    0.00193916    0.00219610
     atom    7 type  4   force =    -0.00231027    0.00365544   -0.00075537
     atom    8 type  4   force =    -0.00242952    0.00090567   -0.00185701
     atom    9 type  4   force =     0.00246674   -0.00148214   -0.00373716
     atom   10 type  3   force =     0.00014941    0.00290899    0.01190374
     atom   11 type  3   force =    -0.00452277   -0.00189824    0.01236871
     atom   12 type  3   force =     0.00318679   -0.00091681   -0.01309164
     atom   13 type  3   force =    -0.00324189    0.00141842   -0.01270991
     atom   14 type  3   force =    -0.00958355    0.00092352    0.00487634
     atom   15 type  3   force =     0.00988211    0.00124531    0.00936779
     atom   16 type  3   force =     0.01120175   -0.00671326   -0.00119813
     atom   17 type  3   force =    -0.01042819   -0.00186354   -0.00288182
     atom   18 type  3   force =     0.00225299    0.00717187   -0.01037006
     atom   19 type  3   force =    -0.00393981   -0.01271733   -0.00496627
     atom   20 type  3   force =    -0.00525060    0.01057629    0.00629732
     atom   21 type  3   force =     0.00338413   -0.00909471    0.00932039
     atom   22 type  3   force =    -0.00321536   -0.00952614    0.00739410
     atom   23 type  3   force =     0.00425667    0.01085637    0.00610248
     atom   24 type  3   force =     0.00353966   -0.00714110   -0.00729639
     atom   25 type  3   force =     0.00143444    0.01375655   -0.01084390
     The Hubbard contrib.    to forces
     atom    1 type  2   force =     0.00000000    0.00000000    0.00000000
     atom    2 type  1   force =     0.00000000    0.00000000    0.00000000
     atom    3 type  1   force =     0.00000000    0.00000000    0.00000000
     atom    4 type  1   force =     0.00000000    0.00000000    0.00000000
     atom    5 type  1   force =     0.00000000    0.00000000    0.00000000
     atom    6 type  4   force =     0.00000000    0.00000000    0.00000000
     atom    7 type  4   force =     0.00000000    0.00000000    0.00000000
     atom    8 type  4   force =     0.00000000    0.00000000    0.00000000
     atom    9 type  4   force =     0.00000000    0.00000000    0.00000000
     atom   10 type  3   force =     0.00000000    0.00000000    0.00000000
     atom   11 type  3   force =     0.00000000    0.00000000    0.00000000
     atom   12 type  3   force =     0.00000000    0.00000000    0.00000000
     atom   13 type  3   force =     0.00000000    0.00000000    0.00000000
     atom   14 type  3   force =     0.00000000    0.00000000    0.00000000
     atom   15 type  3   force =     0.00000000    0.00000000    0.00000000
     atom   16 type  3   force =     0.00000000    0.00000000    0.00000000
     atom   17 type  3   force =     0.00000000    0.00000000    0.00000000
     atom   18 type  3   force =     0.00000000    0.00000000    0.00000000
     atom   19 type  3   force =     0.00000000    0.00000000    0.00000000
     atom   20 type  3   force =     0.00000000    0.00000000    0.00000000
     atom   21 type  3   force =     0.00000000    0.00000000    0.00000000
     atom   22 type  3   force =     0.00000000    0.00000000    0.00000000
     atom   23 type  3   force =     0.00000000    0.00000000    0.00000000
     atom   24 type  3   force =     0.00000000    0.00000000    0.00000000
     atom   25 type  3   force =     0.00000000    0.00000000    0.00000000
     The SCF correction term to forces
     atom    1 type  2   force =    -0.00000599    0.00000291    0.00000160
     atom    2 type  1   force =    -0.00000995   -0.00000429   -0.00000187
     atom    3 type  1   force =    -0.00000517   -0.00000097    0.00000048
     atom    4 type  1   force =     0.00000745    0.00000356   -0.00000131
     atom    5 type  1   force =     0.00000904   -0.00000191   -0.00000082
     atom    6 type  4   force =    -0.00000095   -0.00000011    0.00000018
     atom    7 type  4   force =    -0.00000196   -0.00000128   -0.00000087
     atom    8 type  4   force =     0.00000265    0.00000085   -0.00000067
     atom    9 type  4   force =     0.00000206   -0.00000065    0.00000099
     atom   10 type  3   force =    -0.00000353    0.00000035   -0.00000242
     atom   11 type  3   force =    -0.00000448   -0.00000178    0.00000041
     atom   12 type  3   force =     0.00000379    0.00000046    0.00000158
     atom   13 type  3   force =     0.00000302   -0.00000023   -0.00000048
     atom   14 type  3   force =     0.00000058    0.00000049    0.00000063
     atom   15 type  3   force =     0.00000447    0.00000001   -0.00000339
     atom   16 type  3   force =    -0.00000041    0.00000044   -0.00000095
     atom   17 type  3   force =     0.00000145   -0.00000062    0.00000040
     atom   18 type  3   force =    -0.00000149    0.00000450    0.00000218
     atom   19 type  3   force =    -0.00000697    0.00000268   -0.00000151
     atom   20 type  3   force =     0.00000339    0.00000027   -0.00000106
     atom   21 type  3   force =     0.00000279    0.00000078    0.00000066
     atom   22 type  3   force =     0.00000360    0.00000024   -0.00000106
     atom   23 type  3   force =     0.00000266   -0.00000101    0.00000082
     atom   24 type  3   force =    -0.00000295   -0.00000466    0.00000284
     atom   25 type  3   force =    -0.00000315   -0.00000233   -0.00000050

     Total force =     0.022937     Total SCF correction =     0.000026


     Computing stress (Cartesian axis) and pressure


     negative rho (up, down):  0.000E+00 9.358E-04
          total   stress  (Ry/bohr**3)                   (kbar)     P=       18.37
  -0.00004815  -0.00004327  -0.00016406           -7.08       -6.37      -24.13
  -0.00004327   0.00025236   0.00017417           -6.37       37.12       25.62
  -0.00016406   0.00017417   0.00017049          -24.13       25.62       25.08

     kinetic stress (kbar)  26524.15     24.60    -30.81
                               24.60  26640.64     28.37
                              -30.81     28.37  26645.34

     local   stress (kbar)  -5689.77   3108.16   3950.53
                             3108.16 -17649.63  -1796.89
                             3950.53  -1796.89  -4734.18

     nonloc. stress (kbar)  -6790.95     20.50     17.97
                               20.50  -6771.84     -4.64
                               17.97     -4.64  -6752.32

     hartree stress (kbar)  13185.50  -1148.43  -1701.77
                            -1148.43  19032.39    754.85
                            -1701.77    754.85  13498.03

     exc-cor stress (kbar)  -2804.34     -2.95     -0.72
                               -2.95  -2807.75      0.21
                               -0.72      0.21  -2809.96

     corecor stress (kbar)  -3115.87      0.28     -0.37
                                0.28  -3114.68     -0.05
                               -0.37     -0.05  -3116.60

     ewald   stress (kbar) -21315.79  -2008.52  -2258.97
                            -2008.52 -15292.01   1043.78
                            -2258.97   1043.78 -22705.23

     hubbard stress (kbar)      0.00      0.00      0.00
                                0.00      0.00      0.00
                                0.00      0.00      0.00

     DFT-D   stress (kbar)      0.00      0.00      0.00
                                0.00      0.00      0.00
                                0.00      0.00      0.00

     XDM     stress (kbar)      0.00      0.00      0.00
                                0.00      0.00      0.00
                                0.00      0.00      0.00

     dft-nl  stress (kbar)      0.00      0.00      0.00
                                0.00      0.00      0.00
                                0.00      0.00      0.00

     TS-vdW  stress (kbar)      0.00      0.00      0.00
                                0.00      0.00      0.00
                                0.00      0.00      0.00



     init_run     :     83.02s CPU     84.83s WALL (       1 calls)
     electrons    :   6261.82s CPU   6358.31s WALL (       1 calls)
     forces       :     39.13s CPU     39.88s WALL (       1 calls)
     stress       :    443.71s CPU    447.14s WALL (       1 calls)

     Called by init_run:
     wfcinit      :     76.27s CPU     77.80s WALL (       1 calls)
     wfcinit:atom :      1.75s CPU      1.78s WALL (     316 calls)
     wfcinit:wfcr :     68.09s CPU     69.53s WALL (     316 calls)
     potinit      :      2.41s CPU      2.47s WALL (       1 calls)
     hinit0       :      2.41s CPU      2.45s WALL (       1 calls)

     Called by electrons:
     c_bands      :   5415.38s CPU   5486.35s WALL (      31 calls)
     sum_band     :    769.04s CPU    789.85s WALL (      31 calls)
     v_of_rho     :     16.70s CPU     17.27s WALL (      32 calls)
     v_h          :      0.77s CPU      0.80s WALL (      32 calls)
     v_xc         :     16.94s CPU     17.51s WALL (      34 calls)
     newd         :     42.53s CPU     46.57s WALL (      32 calls)
     PAW_pot      :     15.29s CPU     15.35s WALL (      32 calls)
     mix_rho      :      3.40s CPU      3.55s WALL (      31 calls)

     Called by c_bands:
     init_us_2    :    125.55s CPU    127.63s WALL (   20540 calls)
     cegterg      :   5172.59s CPU   5240.85s WALL (    9796 calls)

     Called by sum_band:
     sum_band:wei :      0.26s CPU      0.26s WALL (      31 calls)
     sum_band:loo :    691.22s CPU    703.08s WALL (      31 calls)
     sum_band:buf :     30.00s CPU     30.39s WALL (    9796 calls)
     sum_band:ini :     61.83s CPU     62.78s WALL (    9796 calls)
     sum_band:cal :    177.20s CPU    181.29s WALL (    9796 calls)
     sum_band:bec :      1.43s CPU      1.46s WALL (    9796 calls)
     addusdens    :     75.59s CPU     84.46s WALL (      31 calls)
     addusd:skk   :      0.52s CPU      0.54s WALL (      93 calls)
     addusd:dgemm :     18.76s CPU     26.95s WALL (     186 calls)
     addusd:qvan2 :     55.51s CPU     56.00s WALL (     186 calls)

     Called by *egterg:
     cdiaghg      :    288.91s CPU    293.87s WALL (   37277 calls)
     cegterg:over :    390.16s CPU    396.65s WALL (   27481 calls)
     cegterg:upda :    337.40s CPU    340.22s WALL (   27481 calls)
     cegterg:last :    521.58s CPU    525.96s WALL (   16392 calls)
     h_psi        :   2799.64s CPU   2842.15s WALL (   37593 calls)
     s_psi        :    598.07s CPU    602.55s WALL (   37593 calls)
     g_psi        :     23.25s CPU     23.61s WALL (   27481 calls)

     Called by h_psi:
     h_psi:calbec :    460.22s CPU    470.01s WALL (   37593 calls)
     vloc_psi     :   1633.64s CPU   1660.22s WALL (   37593 calls)
     add_vuspsi   :    641.32s CPU    646.42s WALL (   37593 calls)

     General routines
     calbec       :    667.48s CPU    682.07s WALL (   48969 calls)
     fft          :     12.83s CPU     13.71s WALL (     838 calls)
     ffts         :      0.12s CPU      0.13s WALL (     126 calls)
     fftw         :   1752.31s CPU   1780.26s WALL ( 6193176 calls)
     interpolate  :      1.23s CPU      1.31s WALL (      64 calls)

     Parallel routines
     fft_scatt_xy :    256.60s CPU    260.63s WALL ( 6194140 calls)
     fft_scatt_yz :    436.90s CPU    445.24s WALL ( 6194140 calls)

     PAW routines
     PAW_pot      :     15.29s CPU     15.35s WALL (      32 calls)

     PWSCF        :      1h53m CPU      1h55m WALL


   This run was terminated on:   1:55:23  14Mar2023            

=------------------------------------------------------------------------------=
   JOB DONE.
=------------------------------------------------------------------------------=
Note: The following floating-point exceptions are signalling: IEEE_UNDERFLOW_FLAG IEEE_DENORMAL
Note: The following floating-point exceptions are signalling: IEEE_DENORMAL
Note: The following floating-point exceptions are signalling: IEEE_DENORMAL
Note: The following floating-point exceptions are signalling: IEEE_INVALID_FLAG IEEE_DENORMAL
Note: The following floating-point exceptions are signalling: IEEE_DENORMAL
Note: The following floating-point exceptions are signalling: IEEE_DENORMAL
Note: The following floating-point exceptions are signalling: IEEE_DENORMAL
Note: The following floating-point exceptions are signalling: IEEE_DENORMAL
Note: The following floating-point exceptions are signalling: IEEE_DENORMAL
Note: The following floating-point exceptions are signalling: IEEE_DENORMAL
Note: The following floating-point exceptions are signalling: IEEE_DENORMAL
Note: The following floating-point exceptions are signalling: IEEE_DENORMAL
Note: The following floating-point exceptions are signalling: IEEE_DENORMAL
Note: The following floating-point exceptions are signalling: IEEE_DENORMAL
Note: The following floating-point exceptions are signalling: IEEE_DENORMAL
