2.51159965 0 0 -1.2557994749829999e+00 2.175109303119 0 0.0000000000000000e+00 0.0000000000000000e+00 8.267796
2.51159965 0 0 -1.2557994749829999e+00 2.175109303119 0 0.0000000000000000e+00 0.0000000000000000e+00 8.267796