0.00358078 1.44951 2.11624 1.28109 0.736808 6.15155 0.0032149 0.0328695 2.10436 -0.0201851 0.0497734 6.24214
0.0370259 1.46199 2.10473 1.24142 0.745612 6.2182 1.2095 2.1485 2.11029 1.2619 2.14936 6.18289