-0.0134082960545384 1.40887818631418 -0.213597627136271 -2.0061988779454 1.53727978314111 1.27228248794826 0.0138577246547941 -1.40889901223902 0.208922592674916 2.00574944934515 -1.53725895721627 -1.2676074534869
-3.77124563041964 -1.90030727765873 0.0894105804325571 0.703160098550699 -1.96177460915937 -0.495183928460189 3.76920828932786 1.90053173484868 -0.0938125638793404 -0.701123014569105 1.96155040907961 0.499586169017156