0.0287548424397836 -0.56607572175574 0.181268271458636 -0.56607572175574 -0.0397493410197009 -0.122349035479079 0.181268271458636 -0.122349035479079 -0.0701956447794717
0.460923209696531 1.32751522597001 0.0462332760796521 1.32751522597001 0.468252875416476 -0.0586373257595587 0.0462332760796521 -0.0586373257595587 0.0318558548597603