6.6737445 0 0 6.2009923914440002e+00 2.467095258098 0 3.9124168070000000e-02 7.4970890930000002e-03 4.398323004617