0.0307634 0.00696201 0.0258991 2.61182 0.460964 2.46936 11.1962 2.18398 2.70503 6.89139 1.34493 2.18834 12.6745 2.46645 2.89326 6.48118 1.28066 0.694957 8.38612 1.57815 2.49321 4.05805 0.729526 2.70401