-0.928461638336991 1.28366706975073 -1.13064511599972 1.01735517019111 0.541415938944384 1.27290418037127 0.235770295116161 -2.58812586868732 0.602482435669398 -0.460507478050302 -0.136193320929194 0.947635116029707 0.219831263528261 -0.430955233591843 -0.0995756886360514 1.21542179960024 -1.05160636035796 0.580054457277577 -1.01691396911672 -0.338712841601382 -1.33873981388469 -0.282495700041941 2.72051061647258 -0.834115313717302