-0.233228671461577 -0.880483434122389 -0.455157504189551 -0.880483434122389 0.611999265811968 -0.568607885074931 -0.455157504189551 -0.568607885074931 -0.414930078297922