
     Program PWSCF v.6.7MaX starts on 28Jan2023 at 13:22:14 

     This program is part of the open-source Quantum ESPRESSO suite
     for quantum simulation of materials; please cite
         "P. Giannozzi et al., J. Phys.:Condens. Matter 21 395502 (2009);
         "P. Giannozzi et al., J. Phys.:Condens. Matter 29 465901 (2017);
          URL http://www.quantum-espresso.org", 
     in publications or presentations arising from this work. More details at
     http://www.quantum-espresso.org/quote

     Parallel version (MPI), running on    32 processors

     MPI processes distributed on     2 nodes
     R & G space division:  proc/nbgrp/npool/nimage =      32
     Reading input from scale_2dab-05.in

     Current dimensions of program PWSCF are:
     Max number of different atomic species (ntypx) = 10
     Max number of k-points (npk) =  40000
     Max angular momentum in pseudopotentials (lmaxx) =  3
     Message from routine read_pp_mesh:
     mesh size missing, using the one in header
     file Fe.pbe-spn-kjpaw_psl.0.2.1.UPF: wavefunction(s)  3D renormalized
     file O.pbe-n-kjpaw_psl.0.1.UPF: wavefunction(s)  2P renormalized

     Subspace diagonalization in iterative solution of the eigenvalue problem:
     a serial algorithm will be used


     Parallelization info
     --------------------
     sticks:   dense  smooth     PW     G-vecs:    dense   smooth      PW
     Min         684     253     68                44602    10058    1410
     Max         685     255     69                44604    10060    1413
     Sum       21895    8121   2193              1427303   321883   45159



     bravais-lattice index     =            0
     lattice parameter (alat)  =      20.6483  a.u.
     unit-cell volume          =    2381.7944 (a.u.)^3
     number of atoms/cell      =           25
     number of atomic types    =            4
     number of electrons       =       189.00
     number of Kohn-Sham states=          114
     kinetic-energy cutoff     =     100.0000  Ry
     charge density cutoff     =    1080.0000  Ry
     scf convergence threshold =      2.0E-10
     mixing beta               =       0.4000
     number of iterations used =            8  plain     mixing
     Exchange-correlation= PBE
                           (   1   4   3   4   0   0   0)

     celldm(1)=  20.648310  celldm(2)=   0.000000  celldm(3)=   0.000000
     celldm(4)=   0.000000  celldm(5)=   0.000000  celldm(6)=   0.000000

     crystal axes: (cart. coord. in units of alat)
               a(1) = (   1.000000   0.000000   0.000000 )  
               a(2) = (   0.000000   0.597590   0.000000 )  
               a(3) = (   0.000000   0.000000   0.452739 )  

     reciprocal axes: (cart. coord. in units 2 pi/alat)
               b(1) = (  1.000000  0.000000  0.000000 )  
               b(2) = (  0.000000  1.673388  0.000000 )  
               b(3) = (  0.000000  0.000000  2.208780 )  


     PseudoPot. # 1 for Fe read from file:
     /opt/QEpot/SSSP_precision_pseudos/Fe.pbe-spn-kjpaw_psl.0.2.1.UPF
     MD5 check sum: e86618425769142926afa95317d90200
     Pseudo is Projector augmented-wave + core cor, Zval = 16.0
     Generated using "atomic" code by A. Dal Corso  v.5.0.99 svn rev. 10869
     Shape of augmentation charge: PSQ
     Using radial grid of 1191 points,  6 beta functions with: 
                l(1) =   0
                l(2) =   0
                l(3) =   1
                l(4) =   1
                l(5) =   2
                l(6) =   2
     Q(r) pseudized with 0 coefficients 


     PseudoPot. # 2 for Na read from file:
     /opt/QEpot/SSSP_precision_pseudos/Na_ONCV_PBE-1.0.oncvpsp.upf
     MD5 check sum: 24a298df0a6742ae313db96548fdb2a4
     Pseudo is Norm-conserving, Zval =  9.0
     Generated using ONCVPSP code by D. R. Hamann
     Using radial grid of 1992 points,  4 beta functions with: 
                l(1) =   0
                l(2) =   0
                l(3) =   1
                l(4) =   1

     PseudoPot. # 3 for O  read from file:
     /opt/QEpot/SSSP_precision_pseudos/O.pbe-n-kjpaw_psl.0.1.UPF
     MD5 check sum: 0234752ac141de4415c5fc33072bef88
     Pseudo is Projector augmented-wave + core cor, Zval =  6.0
     Generated using "atomic" code by A. Dal Corso  v.5.0.99 svn rev. 10869
     Shape of augmentation charge: BESSEL
     Using radial grid of 1095 points,  4 beta functions with: 
                l(1) =   0
                l(2) =   0
                l(3) =   1
                l(4) =   1
     Q(r) pseudized with 0 coefficients 


     PseudoPot. # 4 for P  read from file:
     /opt/QEpot/SSSP_precision_pseudos/P.pbe-n-rrkjus_psl.1.0.0.UPF
     MD5 check sum: 8b930f418f0a4573dca56cd030ffe088
     Pseudo is Ultrasoft + core correction, Zval =  5.0
     Generated using "atomic" code by A. Dal Corso  v.5.1
     Using radial grid of 1147 points,  6 beta functions with: 
                l(1) =   0
                l(2) =   0
                l(3) =   1
                l(4) =   1
                l(5) =   2
                l(6) =   2
     Q(r) pseudized with 0 coefficients 


     atomic species   valence    mass     pseudopotential
        Fe            16.00    55.84500     Fe( 1.00)
        Na             9.00    22.98977     Na( 1.00)
        O              6.00    15.99940     O ( 1.00)
        P              5.00    30.97376     P ( 1.00)

     Starting magnetic structure 
     atomic species   magnetization
        Fe           0.312
        Na           0.000
        O            0.000
        P            0.000

     No symmetry found


                                    s                        frac. trans.

      isym =  1     identity                                     

 cryst.   s( 1) = (     1          0          0      )
                  (     0          1          0      )
                  (     0          0          1      )

 cart.    s( 1) = (  1.0000000  0.0000000  0.0000000 )
                  (  0.0000000  1.0000000  0.0000000 )
                  (  0.0000000  0.0000000  1.0000000 )


   Cartesian axes

     site n.     atom                  positions (alat units)
         1           Na  tau(   1) = (   0.9999980   0.0000000   0.2263706  )
         2           Fe  tau(   2) = (   0.2996860   0.4621103   0.3859248  )
         3           Fe  tau(   3) = (   0.2274400   0.2026356   0.2307373  )
         4           Fe  tau(   4) = (   0.7003200   0.1354826   0.0668161  )
         5           Fe  tau(   5) = (   0.7725660   0.3949573   0.2220040  )
         6           P   tau(   6) = (   0.0937970   0.3904700   0.1209527  )
         7           P   tau(   7) = (   0.3977930   0.1502502   0.4282250  )
         8           P   tau(   8) = (   0.9062090   0.2071229   0.3317904  )
         9           P   tau(   9) = (   0.6022130   0.4473427   0.0245153  )
        10           O   tau(  10) = (   0.1764850   0.4101953   0.2420168  )
        11           O   tau(  11) = (   0.3589780   0.1499030   0.1110287  )
        12           O   tau(  12) = (   0.8235200   0.1873976   0.2107231  )
        13           O   tau(  13) = (   0.6410280   0.4476899   0.3417130  )
        14           O   tau(  14) = (   0.4562740   0.4640531   0.0395191  )
        15           O   tau(  15) = (   0.0496550   0.1754697   0.3111188  )
        16           O   tau(  16) = (   0.5437320   0.1335398   0.4132222  )
        17           O   tau(  17) = (   0.9503500   0.4221232   0.1416221  )
        18           O   tau(  18) = (   0.1479210   0.4915428   0.0293488  )
        19           O   tau(  19) = (   0.3206550   0.0491548   0.3479237  )
        20           O   tau(  20) = (   0.8792370   0.3474352   0.3678917  )
        21           O   tau(  21) = (   0.6516400   0.3219271   0.0942765  )
        22           O   tau(  22) = (   0.8520850   0.1060501   0.4233925  )
        23           O   tau(  23) = (   0.6793510   0.5484382   0.1048176  )
        24           O   tau(  24) = (   0.1207690   0.2501571   0.0848491  )
        25           O   tau(  25) = (   0.3483660   0.2756658   0.3584648  )

   Crystallographic axes

     site n.     atom                  positions (cryst. coord.)
         1           Na  tau(   1) = (  0.9999980  0.0000000  0.5000030  )
         2           Fe  tau(   2) = (  0.2996860  0.7732900  0.8524230  )
         3           Fe  tau(   3) = (  0.2274400  0.3390880  0.5096480  )
         4           Fe  tau(   4) = (  0.7003200  0.2267150  0.1475820  )
         5           Fe  tau(   5) = (  0.7725660  0.6609170  0.4903580  )
         6           P   tau(   6) = (  0.0937970  0.6534080  0.2671580  )
         7           P   tau(   7) = (  0.3977930  0.2514270  0.9458550  )
         8           P   tau(   8) = (  0.9062090  0.3465970  0.7328520  )
         9           P   tau(   9) = (  0.6022130  0.7485780  0.0541490  )
        10           O   tau(  10) = (  0.1764850  0.6864160  0.5345620  )
        11           O   tau(  11) = (  0.3589780  0.2508460  0.2452380  )
        12           O   tau(  12) = (  0.8235200  0.3135890  0.4654410  )
        13           O   tau(  13) = (  0.6410280  0.7491590  0.7547690  )
        14           O   tau(  14) = (  0.4562740  0.7765410  0.0872890  )
        15           O   tau(  15) = (  0.0496550  0.2936290  0.6871930  )
        16           O   tau(  16) = (  0.5437320  0.2234640  0.9127170  )
        17           O   tau(  17) = (  0.9503500  0.7063760  0.3128120  )
        18           O   tau(  18) = (  0.1479210  0.8225420  0.0648250  )
        19           O   tau(  19) = (  0.3206550  0.0822550  0.7684870  )
        20           O   tau(  20) = (  0.8792370  0.5813940  0.8125920  )
        21           O   tau(  21) = (  0.6516400  0.5387090  0.2082360  )
        22           O   tau(  22) = (  0.8520850  0.1774630  0.9351810  )
        23           O   tau(  23) = (  0.6793510  0.9177500  0.2315190  )
        24           O   tau(  24) = (  0.1207690  0.4186100  0.1874130  )
        25           O   tau(  25) = (  0.3483660  0.4612960  0.7917700  )

     number of k points=   158  Marzari-Vanderbilt smearing, width (Ry)=  0.0073
                       cart. coord. in units 2pi/alat
        k(    1) = (   0.0000000   0.0000000   0.0000000), wk =   0.0031746
        k(    2) = (   0.0000000   0.0000000   0.2454200), wk =   0.0063492
        k(    3) = (   0.0000000   0.0000000   0.4908401), wk =   0.0063492
        k(    4) = (   0.0000000   0.0000000   0.7362601), wk =   0.0063492
        k(    5) = (   0.0000000   0.0000000   0.9816801), wk =   0.0063492
        k(    6) = (   0.0000000   0.2390555   0.0000000), wk =   0.0063492
        k(    7) = (   0.0000000   0.2390555   0.2454200), wk =   0.0063492
        k(    8) = (   0.0000000   0.2390555   0.4908401), wk =   0.0063492
        k(    9) = (   0.0000000   0.2390555   0.7362601), wk =   0.0063492
        k(   10) = (   0.0000000   0.2390555   0.9816801), wk =   0.0063492
        k(   11) = (   0.0000000   0.4781110   0.0000000), wk =   0.0063492
        k(   12) = (   0.0000000   0.4781110   0.2454200), wk =   0.0063492
        k(   13) = (   0.0000000   0.4781110   0.4908401), wk =   0.0063492
        k(   14) = (   0.0000000   0.4781110   0.7362601), wk =   0.0063492
        k(   15) = (   0.0000000   0.4781110   0.9816801), wk =   0.0063492
        k(   16) = (   0.0000000   0.7171664   0.0000000), wk =   0.0063492
        k(   17) = (   0.0000000   0.7171664   0.2454200), wk =   0.0063492
        k(   18) = (   0.0000000   0.7171664   0.4908401), wk =   0.0063492
        k(   19) = (   0.0000000   0.7171664   0.7362601), wk =   0.0063492
        k(   20) = (   0.0000000   0.7171664   0.9816801), wk =   0.0063492
        k(   21) = (   0.2000000   0.0000000   0.0000000), wk =   0.0063492
        k(   22) = (   0.2000000   0.0000000   0.2454200), wk =   0.0063492
        k(   23) = (   0.2000000   0.0000000   0.4908401), wk =   0.0063492
        k(   24) = (   0.2000000   0.0000000   0.7362601), wk =   0.0063492
        k(   25) = (   0.2000000   0.0000000   0.9816801), wk =   0.0063492
        k(   26) = (   0.2000000   0.2390555   0.0000000), wk =   0.0063492
        k(   27) = (   0.2000000   0.2390555   0.2454200), wk =   0.0063492
        k(   28) = (   0.2000000   0.2390555   0.4908401), wk =   0.0063492
        k(   29) = (   0.2000000   0.2390555   0.7362601), wk =   0.0063492
        k(   30) = (   0.2000000   0.2390555   0.9816801), wk =   0.0063492
        k(   31) = (   0.2000000   0.4781110   0.0000000), wk =   0.0063492
        k(   32) = (   0.2000000   0.4781110   0.2454200), wk =   0.0063492
        k(   33) = (   0.2000000   0.4781110   0.4908401), wk =   0.0063492
        k(   34) = (   0.2000000   0.4781110   0.7362601), wk =   0.0063492
        k(   35) = (   0.2000000   0.4781110   0.9816801), wk =   0.0063492
        k(   36) = (   0.2000000   0.7171664   0.0000000), wk =   0.0063492
        k(   37) = (   0.2000000   0.7171664   0.2454200), wk =   0.0063492
        k(   38) = (   0.2000000   0.7171664   0.4908401), wk =   0.0063492
        k(   39) = (   0.2000000   0.7171664   0.7362601), wk =   0.0063492
        k(   40) = (   0.2000000   0.7171664   0.9816801), wk =   0.0063492
        k(   41) = (   0.4000000   0.0000000   0.0000000), wk =   0.0063492
        k(   42) = (   0.4000000   0.0000000   0.2454200), wk =   0.0063492
        k(   43) = (   0.4000000   0.0000000   0.4908401), wk =   0.0063492
        k(   44) = (   0.4000000   0.0000000   0.7362601), wk =   0.0063492
        k(   45) = (   0.4000000   0.0000000   0.9816801), wk =   0.0063492
        k(   46) = (   0.4000000   0.2390555   0.0000000), wk =   0.0063492
        k(   47) = (   0.4000000   0.2390555   0.2454200), wk =   0.0063492
        k(   48) = (   0.4000000   0.2390555   0.4908401), wk =   0.0063492
        k(   49) = (   0.4000000   0.2390555   0.7362601), wk =   0.0063492
        k(   50) = (   0.4000000   0.2390555   0.9816801), wk =   0.0063492
        k(   51) = (   0.4000000   0.4781110   0.0000000), wk =   0.0063492
        k(   52) = (   0.4000000   0.4781110   0.2454200), wk =   0.0063492
        k(   53) = (   0.4000000   0.4781110   0.4908401), wk =   0.0063492
        k(   54) = (   0.4000000   0.4781110   0.7362601), wk =   0.0063492
        k(   55) = (   0.4000000   0.4781110   0.9816801), wk =   0.0063492
        k(   56) = (   0.4000000   0.7171664   0.0000000), wk =   0.0063492
        k(   57) = (   0.4000000   0.7171664   0.2454200), wk =   0.0063492
        k(   58) = (   0.4000000   0.7171664   0.4908401), wk =   0.0063492
        k(   59) = (   0.4000000   0.7171664   0.7362601), wk =   0.0063492
        k(   60) = (   0.4000000   0.7171664   0.9816801), wk =   0.0063492
        k(   61) = (   0.0000000  -0.2390555   0.2454200), wk =   0.0063492
        k(   62) = (   0.0000000  -0.2390555   0.4908401), wk =   0.0063492
        k(   63) = (   0.0000000  -0.2390555   0.7362601), wk =   0.0063492
        k(   64) = (   0.0000000  -0.2390555   0.9816801), wk =   0.0063492
        k(   65) = (   0.0000000  -0.4781110   0.2454200), wk =   0.0063492
        k(   66) = (   0.0000000  -0.4781110   0.4908401), wk =   0.0063492
        k(   67) = (   0.0000000  -0.4781110   0.7362601), wk =   0.0063492
        k(   68) = (   0.0000000  -0.4781110   0.9816801), wk =   0.0063492
        k(   69) = (   0.0000000  -0.7171664   0.2454200), wk =   0.0063492
        k(   70) = (   0.0000000  -0.7171664   0.4908401), wk =   0.0063492
        k(   71) = (   0.0000000  -0.7171664   0.7362601), wk =   0.0063492
        k(   72) = (   0.0000000  -0.7171664   0.9816801), wk =   0.0063492
        k(   73) = (  -0.2000000   0.0000000   0.2454200), wk =   0.0063492
        k(   74) = (  -0.2000000   0.0000000   0.4908401), wk =   0.0063492
        k(   75) = (  -0.2000000   0.0000000   0.7362601), wk =   0.0063492
        k(   76) = (  -0.2000000   0.0000000   0.9816801), wk =   0.0063492
        k(   77) = (  -0.2000000   0.2390555   0.0000000), wk =   0.0063492
        k(   78) = (  -0.2000000  -0.2390555   0.2454200), wk =   0.0063492
        k(   79) = (  -0.2000000   0.2390555  -0.2454200), wk =   0.0063492
        k(   80) = (   0.2000000  -0.2390555  -0.2454200), wk =   0.0063492
        k(   81) = (  -0.2000000  -0.2390555   0.4908401), wk =   0.0063492
        k(   82) = (  -0.2000000   0.2390555  -0.4908401), wk =   0.0063492
        k(   83) = (   0.2000000  -0.2390555  -0.4908401), wk =   0.0063492
        k(   84) = (  -0.2000000  -0.2390555   0.7362601), wk =   0.0063492
        k(   85) = (  -0.2000000   0.2390555  -0.7362601), wk =   0.0063492
        k(   86) = (   0.2000000  -0.2390555  -0.7362601), wk =   0.0063492
        k(   87) = (  -0.2000000  -0.2390555   0.9816801), wk =   0.0063492
        k(   88) = (  -0.2000000   0.2390555  -0.9816801), wk =   0.0063492
        k(   89) = (   0.2000000  -0.2390555  -0.9816801), wk =   0.0063492
        k(   90) = (  -0.2000000   0.4781110   0.0000000), wk =   0.0063492
        k(   91) = (  -0.2000000  -0.4781110   0.2454200), wk =   0.0063492
        k(   92) = (  -0.2000000   0.4781110  -0.2454200), wk =   0.0063492
        k(   93) = (   0.2000000  -0.4781110  -0.2454200), wk =   0.0063492
        k(   94) = (  -0.2000000  -0.4781110   0.4908401), wk =   0.0063492
        k(   95) = (  -0.2000000   0.4781110  -0.4908401), wk =   0.0063492
        k(   96) = (   0.2000000  -0.4781110  -0.4908401), wk =   0.0063492
        k(   97) = (  -0.2000000  -0.4781110   0.7362601), wk =   0.0063492
        k(   98) = (  -0.2000000   0.4781110  -0.7362601), wk =   0.0063492
        k(   99) = (   0.2000000  -0.4781110  -0.7362601), wk =   0.0063492
        k(  100) = (  -0.2000000  -0.4781110   0.9816801), wk =   0.0063492
        k(  101) = (  -0.2000000   0.4781110  -0.9816801), wk =   0.0063492
        k(  102) = (   0.2000000  -0.4781110  -0.9816801), wk =   0.0063492
        k(  103) = (  -0.2000000   0.7171664   0.0000000), wk =   0.0063492
        k(  104) = (  -0.2000000  -0.7171664   0.2454200), wk =   0.0063492
        k(  105) = (  -0.2000000   0.7171664  -0.2454200), wk =   0.0063492
        k(  106) = (   0.2000000  -0.7171664  -0.2454200), wk =   0.0063492
        k(  107) = (  -0.2000000  -0.7171664   0.4908401), wk =   0.0063492
        k(  108) = (  -0.2000000   0.7171664  -0.4908401), wk =   0.0063492
        k(  109) = (   0.2000000  -0.7171664  -0.4908401), wk =   0.0063492
        k(  110) = (  -0.2000000  -0.7171664   0.7362601), wk =   0.0063492
        k(  111) = (  -0.2000000   0.7171664  -0.7362601), wk =   0.0063492
        k(  112) = (   0.2000000  -0.7171664  -0.7362601), wk =   0.0063492
        k(  113) = (  -0.2000000  -0.7171664   0.9816801), wk =   0.0063492
        k(  114) = (  -0.2000000   0.7171664  -0.9816801), wk =   0.0063492
        k(  115) = (   0.2000000  -0.7171664  -0.9816801), wk =   0.0063492
        k(  116) = (  -0.4000000   0.0000000   0.2454200), wk =   0.0063492
        k(  117) = (  -0.4000000   0.0000000   0.4908401), wk =   0.0063492
        k(  118) = (  -0.4000000   0.0000000   0.7362601), wk =   0.0063492
        k(  119) = (  -0.4000000   0.0000000   0.9816801), wk =   0.0063492
        k(  120) = (  -0.4000000   0.2390555   0.0000000), wk =   0.0063492
        k(  121) = (  -0.4000000  -0.2390555   0.2454200), wk =   0.0063492
        k(  122) = (  -0.4000000   0.2390555  -0.2454200), wk =   0.0063492
        k(  123) = (   0.4000000  -0.2390555  -0.2454200), wk =   0.0063492
        k(  124) = (  -0.4000000  -0.2390555   0.4908401), wk =   0.0063492
        k(  125) = (  -0.4000000   0.2390555  -0.4908401), wk =   0.0063492
        k(  126) = (   0.4000000  -0.2390555  -0.4908401), wk =   0.0063492
        k(  127) = (  -0.4000000  -0.2390555   0.7362601), wk =   0.0063492
        k(  128) = (  -0.4000000   0.2390555  -0.7362601), wk =   0.0063492
        k(  129) = (   0.4000000  -0.2390555  -0.7362601), wk =   0.0063492
        k(  130) = (  -0.4000000  -0.2390555   0.9816801), wk =   0.0063492
        k(  131) = (  -0.4000000   0.2390555  -0.9816801), wk =   0.0063492
        k(  132) = (   0.4000000  -0.2390555  -0.9816801), wk =   0.0063492
        k(  133) = (  -0.4000000   0.4781110   0.0000000), wk =   0.0063492
        k(  134) = (  -0.4000000  -0.4781110   0.2454200), wk =   0.0063492
        k(  135) = (  -0.4000000   0.4781110  -0.2454200), wk =   0.0063492
        k(  136) = (   0.4000000  -0.4781110  -0.2454200), wk =   0.0063492
        k(  137) = (  -0.4000000  -0.4781110   0.4908401), wk =   0.0063492
        k(  138) = (  -0.4000000   0.4781110  -0.4908401), wk =   0.0063492
        k(  139) = (   0.4000000  -0.4781110  -0.4908401), wk =   0.0063492
        k(  140) = (  -0.4000000  -0.4781110   0.7362601), wk =   0.0063492
        k(  141) = (  -0.4000000   0.4781110  -0.7362601), wk =   0.0063492
        k(  142) = (   0.4000000  -0.4781110  -0.7362601), wk =   0.0063492
        k(  143) = (  -0.4000000  -0.4781110   0.9816801), wk =   0.0063492
        k(  144) = (  -0.4000000   0.4781110  -0.9816801), wk =   0.0063492
        k(  145) = (   0.4000000  -0.4781110  -0.9816801), wk =   0.0063492
        k(  146) = (  -0.4000000   0.7171664   0.0000000), wk =   0.0063492
        k(  147) = (  -0.4000000  -0.7171664   0.2454200), wk =   0.0063492
        k(  148) = (  -0.4000000   0.7171664  -0.2454200), wk =   0.0063492
        k(  149) = (   0.4000000  -0.7171664  -0.2454200), wk =   0.0063492
        k(  150) = (  -0.4000000  -0.7171664   0.4908401), wk =   0.0063492
        k(  151) = (  -0.4000000   0.7171664  -0.4908401), wk =   0.0063492
        k(  152) = (   0.4000000  -0.7171664  -0.4908401), wk =   0.0063492
        k(  153) = (  -0.4000000  -0.7171664   0.7362601), wk =   0.0063492
        k(  154) = (  -0.4000000   0.7171664  -0.7362601), wk =   0.0063492
        k(  155) = (   0.4000000  -0.7171664  -0.7362601), wk =   0.0063492
        k(  156) = (  -0.4000000  -0.7171664   0.9816801), wk =   0.0063492
        k(  157) = (  -0.4000000   0.7171664  -0.9816801), wk =   0.0063492
        k(  158) = (   0.4000000  -0.7171664  -0.9816801), wk =   0.0063492

                       cryst. coord.
        k(    1) = (   0.0000000   0.0000000   0.0000000), wk =   0.0031746
        k(    2) = (   0.0000000   0.0000000   0.1111111), wk =   0.0063492
        k(    3) = (   0.0000000   0.0000000   0.2222222), wk =   0.0063492
        k(    4) = (   0.0000000   0.0000000   0.3333333), wk =   0.0063492
        k(    5) = (   0.0000000   0.0000000   0.4444444), wk =   0.0063492
        k(    6) = (   0.0000000   0.1428571   0.0000000), wk =   0.0063492
        k(    7) = (   0.0000000   0.1428571   0.1111111), wk =   0.0063492
        k(    8) = (   0.0000000   0.1428571   0.2222222), wk =   0.0063492
        k(    9) = (   0.0000000   0.1428571   0.3333333), wk =   0.0063492
        k(   10) = (   0.0000000   0.1428571   0.4444444), wk =   0.0063492
        k(   11) = (   0.0000000   0.2857143   0.0000000), wk =   0.0063492
        k(   12) = (   0.0000000   0.2857143   0.1111111), wk =   0.0063492
        k(   13) = (   0.0000000   0.2857143   0.2222222), wk =   0.0063492
        k(   14) = (   0.0000000   0.2857143   0.3333333), wk =   0.0063492
        k(   15) = (   0.0000000   0.2857143   0.4444444), wk =   0.0063492
        k(   16) = (   0.0000000   0.4285714   0.0000000), wk =   0.0063492
        k(   17) = (   0.0000000   0.4285714   0.1111111), wk =   0.0063492
        k(   18) = (   0.0000000   0.4285714   0.2222222), wk =   0.0063492
        k(   19) = (   0.0000000   0.4285714   0.3333333), wk =   0.0063492
        k(   20) = (   0.0000000   0.4285714   0.4444444), wk =   0.0063492
        k(   21) = (   0.2000000   0.0000000   0.0000000), wk =   0.0063492
        k(   22) = (   0.2000000   0.0000000   0.1111111), wk =   0.0063492
        k(   23) = (   0.2000000   0.0000000   0.2222222), wk =   0.0063492
        k(   24) = (   0.2000000   0.0000000   0.3333333), wk =   0.0063492
        k(   25) = (   0.2000000   0.0000000   0.4444444), wk =   0.0063492
        k(   26) = (   0.2000000   0.1428571   0.0000000), wk =   0.0063492
        k(   27) = (   0.2000000   0.1428571   0.1111111), wk =   0.0063492
        k(   28) = (   0.2000000   0.1428571   0.2222222), wk =   0.0063492
        k(   29) = (   0.2000000   0.1428571   0.3333333), wk =   0.0063492
        k(   30) = (   0.2000000   0.1428571   0.4444444), wk =   0.0063492
        k(   31) = (   0.2000000   0.2857143   0.0000000), wk =   0.0063492
        k(   32) = (   0.2000000   0.2857143   0.1111111), wk =   0.0063492
        k(   33) = (   0.2000000   0.2857143   0.2222222), wk =   0.0063492
        k(   34) = (   0.2000000   0.2857143   0.3333333), wk =   0.0063492
        k(   35) = (   0.2000000   0.2857143   0.4444444), wk =   0.0063492
        k(   36) = (   0.2000000   0.4285714   0.0000000), wk =   0.0063492
        k(   37) = (   0.2000000   0.4285714   0.1111111), wk =   0.0063492
        k(   38) = (   0.2000000   0.4285714   0.2222222), wk =   0.0063492
        k(   39) = (   0.2000000   0.4285714   0.3333333), wk =   0.0063492
        k(   40) = (   0.2000000   0.4285714   0.4444444), wk =   0.0063492
        k(   41) = (   0.4000000   0.0000000   0.0000000), wk =   0.0063492
        k(   42) = (   0.4000000   0.0000000   0.1111111), wk =   0.0063492
        k(   43) = (   0.4000000   0.0000000   0.2222222), wk =   0.0063492
        k(   44) = (   0.4000000   0.0000000   0.3333333), wk =   0.0063492
        k(   45) = (   0.4000000   0.0000000   0.4444444), wk =   0.0063492
        k(   46) = (   0.4000000   0.1428571   0.0000000), wk =   0.0063492
        k(   47) = (   0.4000000   0.1428571   0.1111111), wk =   0.0063492
        k(   48) = (   0.4000000   0.1428571   0.2222222), wk =   0.0063492
        k(   49) = (   0.4000000   0.1428571   0.3333333), wk =   0.0063492
        k(   50) = (   0.4000000   0.1428571   0.4444444), wk =   0.0063492
        k(   51) = (   0.4000000   0.2857143   0.0000000), wk =   0.0063492
        k(   52) = (   0.4000000   0.2857143   0.1111111), wk =   0.0063492
        k(   53) = (   0.4000000   0.2857143   0.2222222), wk =   0.0063492
        k(   54) = (   0.4000000   0.2857143   0.3333333), wk =   0.0063492
        k(   55) = (   0.4000000   0.2857143   0.4444444), wk =   0.0063492
        k(   56) = (   0.4000000   0.4285714   0.0000000), wk =   0.0063492
        k(   57) = (   0.4000000   0.4285714   0.1111111), wk =   0.0063492
        k(   58) = (   0.4000000   0.4285714   0.2222222), wk =   0.0063492
        k(   59) = (   0.4000000   0.4285714   0.3333333), wk =   0.0063492
        k(   60) = (   0.4000000   0.4285714   0.4444444), wk =   0.0063492
        k(   61) = (   0.0000000  -0.1428571   0.1111111), wk =   0.0063492
        k(   62) = (   0.0000000  -0.1428571   0.2222222), wk =   0.0063492
        k(   63) = (   0.0000000  -0.1428571   0.3333333), wk =   0.0063492
        k(   64) = (   0.0000000  -0.1428571   0.4444444), wk =   0.0063492
        k(   65) = (   0.0000000  -0.2857143   0.1111111), wk =   0.0063492
        k(   66) = (   0.0000000  -0.2857143   0.2222222), wk =   0.0063492
        k(   67) = (   0.0000000  -0.2857143   0.3333333), wk =   0.0063492
        k(   68) = (   0.0000000  -0.2857143   0.4444444), wk =   0.0063492
        k(   69) = (   0.0000000  -0.4285714   0.1111111), wk =   0.0063492
        k(   70) = (   0.0000000  -0.4285714   0.2222222), wk =   0.0063492
        k(   71) = (   0.0000000  -0.4285714   0.3333333), wk =   0.0063492
        k(   72) = (   0.0000000  -0.4285714   0.4444444), wk =   0.0063492
        k(   73) = (  -0.2000000   0.0000000   0.1111111), wk =   0.0063492
        k(   74) = (  -0.2000000   0.0000000   0.2222222), wk =   0.0063492
        k(   75) = (  -0.2000000   0.0000000   0.3333333), wk =   0.0063492
        k(   76) = (  -0.2000000   0.0000000   0.4444444), wk =   0.0063492
        k(   77) = (  -0.2000000   0.1428571   0.0000000), wk =   0.0063492
        k(   78) = (  -0.2000000  -0.1428571   0.1111111), wk =   0.0063492
        k(   79) = (  -0.2000000   0.1428571  -0.1111111), wk =   0.0063492
        k(   80) = (   0.2000000  -0.1428571  -0.1111111), wk =   0.0063492
        k(   81) = (  -0.2000000  -0.1428571   0.2222222), wk =   0.0063492
        k(   82) = (  -0.2000000   0.1428571  -0.2222222), wk =   0.0063492
        k(   83) = (   0.2000000  -0.1428571  -0.2222222), wk =   0.0063492
        k(   84) = (  -0.2000000  -0.1428571   0.3333333), wk =   0.0063492
        k(   85) = (  -0.2000000   0.1428571  -0.3333333), wk =   0.0063492
        k(   86) = (   0.2000000  -0.1428571  -0.3333333), wk =   0.0063492
        k(   87) = (  -0.2000000  -0.1428571   0.4444444), wk =   0.0063492
        k(   88) = (  -0.2000000   0.1428571  -0.4444444), wk =   0.0063492
        k(   89) = (   0.2000000  -0.1428571  -0.4444444), wk =   0.0063492
        k(   90) = (  -0.2000000   0.2857143   0.0000000), wk =   0.0063492
        k(   91) = (  -0.2000000  -0.2857143   0.1111111), wk =   0.0063492
        k(   92) = (  -0.2000000   0.2857143  -0.1111111), wk =   0.0063492
        k(   93) = (   0.2000000  -0.2857143  -0.1111111), wk =   0.0063492
        k(   94) = (  -0.2000000  -0.2857143   0.2222222), wk =   0.0063492
        k(   95) = (  -0.2000000   0.2857143  -0.2222222), wk =   0.0063492
        k(   96) = (   0.2000000  -0.2857143  -0.2222222), wk =   0.0063492
        k(   97) = (  -0.2000000  -0.2857143   0.3333333), wk =   0.0063492
        k(   98) = (  -0.2000000   0.2857143  -0.3333333), wk =   0.0063492
        k(   99) = (   0.2000000  -0.2857143  -0.3333333), wk =   0.0063492
        k(  100) = (  -0.2000000  -0.2857143   0.4444444), wk =   0.0063492
        k(  101) = (  -0.2000000   0.2857143  -0.4444444), wk =   0.0063492
        k(  102) = (   0.2000000  -0.2857143  -0.4444444), wk =   0.0063492
        k(  103) = (  -0.2000000   0.4285714   0.0000000), wk =   0.0063492
        k(  104) = (  -0.2000000  -0.4285714   0.1111111), wk =   0.0063492
        k(  105) = (  -0.2000000   0.4285714  -0.1111111), wk =   0.0063492
        k(  106) = (   0.2000000  -0.4285714  -0.1111111), wk =   0.0063492
        k(  107) = (  -0.2000000  -0.4285714   0.2222222), wk =   0.0063492
        k(  108) = (  -0.2000000   0.4285714  -0.2222222), wk =   0.0063492
        k(  109) = (   0.2000000  -0.4285714  -0.2222222), wk =   0.0063492
        k(  110) = (  -0.2000000  -0.4285714   0.3333333), wk =   0.0063492
        k(  111) = (  -0.2000000   0.4285714  -0.3333333), wk =   0.0063492
        k(  112) = (   0.2000000  -0.4285714  -0.3333333), wk =   0.0063492
        k(  113) = (  -0.2000000  -0.4285714   0.4444444), wk =   0.0063492
        k(  114) = (  -0.2000000   0.4285714  -0.4444444), wk =   0.0063492
        k(  115) = (   0.2000000  -0.4285714  -0.4444444), wk =   0.0063492
        k(  116) = (  -0.4000000   0.0000000   0.1111111), wk =   0.0063492
        k(  117) = (  -0.4000000   0.0000000   0.2222222), wk =   0.0063492
        k(  118) = (  -0.4000000   0.0000000   0.3333333), wk =   0.0063492
        k(  119) = (  -0.4000000   0.0000000   0.4444444), wk =   0.0063492
        k(  120) = (  -0.4000000   0.1428571   0.0000000), wk =   0.0063492
        k(  121) = (  -0.4000000  -0.1428571   0.1111111), wk =   0.0063492
        k(  122) = (  -0.4000000   0.1428571  -0.1111111), wk =   0.0063492
        k(  123) = (   0.4000000  -0.1428571  -0.1111111), wk =   0.0063492
        k(  124) = (  -0.4000000  -0.1428571   0.2222222), wk =   0.0063492
        k(  125) = (  -0.4000000   0.1428571  -0.2222222), wk =   0.0063492
        k(  126) = (   0.4000000  -0.1428571  -0.2222222), wk =   0.0063492
        k(  127) = (  -0.4000000  -0.1428571   0.3333333), wk =   0.0063492
        k(  128) = (  -0.4000000   0.1428571  -0.3333333), wk =   0.0063492
        k(  129) = (   0.4000000  -0.1428571  -0.3333333), wk =   0.0063492
        k(  130) = (  -0.4000000  -0.1428571   0.4444444), wk =   0.0063492
        k(  131) = (  -0.4000000   0.1428571  -0.4444444), wk =   0.0063492
        k(  132) = (   0.4000000  -0.1428571  -0.4444444), wk =   0.0063492
        k(  133) = (  -0.4000000   0.2857143   0.0000000), wk =   0.0063492
        k(  134) = (  -0.4000000  -0.2857143   0.1111111), wk =   0.0063492
        k(  135) = (  -0.4000000   0.2857143  -0.1111111), wk =   0.0063492
        k(  136) = (   0.4000000  -0.2857143  -0.1111111), wk =   0.0063492
        k(  137) = (  -0.4000000  -0.2857143   0.2222222), wk =   0.0063492
        k(  138) = (  -0.4000000   0.2857143  -0.2222222), wk =   0.0063492
        k(  139) = (   0.4000000  -0.2857143  -0.2222222), wk =   0.0063492
        k(  140) = (  -0.4000000  -0.2857143   0.3333333), wk =   0.0063492
        k(  141) = (  -0.4000000   0.2857143  -0.3333333), wk =   0.0063492
        k(  142) = (   0.4000000  -0.2857143  -0.3333333), wk =   0.0063492
        k(  143) = (  -0.4000000  -0.2857143   0.4444444), wk =   0.0063492
        k(  144) = (  -0.4000000   0.2857143  -0.4444444), wk =   0.0063492
        k(  145) = (   0.4000000  -0.2857143  -0.4444444), wk =   0.0063492
        k(  146) = (  -0.4000000   0.4285714   0.0000000), wk =   0.0063492
        k(  147) = (  -0.4000000  -0.4285714   0.1111111), wk =   0.0063492
        k(  148) = (  -0.4000000   0.4285714  -0.1111111), wk =   0.0063492
        k(  149) = (   0.4000000  -0.4285714  -0.1111111), wk =   0.0063492
        k(  150) = (  -0.4000000  -0.4285714   0.2222222), wk =   0.0063492
        k(  151) = (  -0.4000000   0.4285714  -0.2222222), wk =   0.0063492
        k(  152) = (   0.4000000  -0.4285714  -0.2222222), wk =   0.0063492
        k(  153) = (  -0.4000000  -0.4285714   0.3333333), wk =   0.0063492
        k(  154) = (  -0.4000000   0.4285714  -0.3333333), wk =   0.0063492
        k(  155) = (   0.4000000  -0.4285714  -0.3333333), wk =   0.0063492
        k(  156) = (  -0.4000000  -0.4285714   0.4444444), wk =   0.0063492
        k(  157) = (  -0.4000000   0.4285714  -0.4444444), wk =   0.0063492
        k(  158) = (   0.4000000  -0.4285714  -0.4444444), wk =   0.0063492

     Dense  grid:  1427303 G-vectors     FFT dimensions: ( 216, 135, 100)

     Smooth grid:   321883 G-vectors     FFT dimensions: ( 135,  80,  60)

     Dynamical RAM for                 wfc:       2.18 MB

     Dynamical RAM for     wfc (w. buffer):     692.59 MB

     Dynamical RAM for           str. fact:       2.72 MB

     Dynamical RAM for           local pot:       0.00 MB

     Dynamical RAM for          nlocal pot:       5.37 MB

     Dynamical RAM for                qrad:      10.54 MB

     Dynamical RAM for          rho,v,vnew:       9.42 MB

     Dynamical RAM for               rhoin:       3.14 MB

     Dynamical RAM for            rho*nmix:      21.78 MB

     Dynamical RAM for           G-vectors:       2.63 MB

     Dynamical RAM for          h,s,v(r/c):       2.38 MB

     Dynamical RAM for          <psi|beta>:       0.49 MB

     Dynamical RAM for                 psi:       4.37 MB

     Dynamical RAM for                hpsi:       4.37 MB

     Dynamical RAM for                spsi:       4.37 MB

     Dynamical RAM for      wfcinit/wfcrot:       5.68 MB

     Dynamical RAM for           addusdens:     138.16 MB

     Dynamical RAM for          addusforce:     158.71 MB

     Dynamical RAM for         addusstress:     137.82 MB

     Estimated static dynamical RAM per process >     756.93 MB

     Estimated max dynamical RAM per process >     915.64 MB

     Estimated total dynamical RAM >      28.61 GB

     Check: negative core charge=   -0.000003
     Generating pointlists ...
     new r_m :   0.0751 (alat units)  1.5507 (a.u.) for type    1
     new r_m :   0.0829 (alat units)  1.7127 (a.u.) for type    2
     new r_m :   0.0582 (alat units)  1.2009 (a.u.) for type    3
     new r_m :   0.0582 (alat units)  1.2009 (a.u.) for type    4

     Initial potential from superposition of free atoms

     starting charge  188.99132, renormalised to  189.00000
     Starting wfcs are  137 randomized atomic wfcs
     Checking if some PAW data can be deallocated... 
       PAW data deallocated on   24 nodes for type:  1
       PAW data deallocated on   16 nodes for type:  3

     total cpu time spent up to now is     1336.4 secs

     Self-consistent Calculation

     iteration #  1     ecut=   100.00 Ry     beta= 0.40
     Davidson diagonalization with overlap
     ethr =  1.00E-02,  avg # of iterations =  2.9

     negative rho (up, down):  0.000E+00 1.015E-04

     total cpu time spent up to now is     4906.3 secs

     total energy              =   -2123.55242038 Ry
     estimated scf accuracy    <       7.15171377 Ry

     total magnetization       =    19.00 Bohr mag/cell
     absolute magnetization    =    19.00 Bohr mag/cell

     iteration #  2     ecut=   100.00 Ry     beta= 0.40
     Davidson diagonalization with overlap
     ethr =  3.78E-03,  avg # of iterations =  2.0

     negative rho (up, down):  0.000E+00 5.842E-05

     total cpu time spent up to now is     8341.2 secs

     total energy              =   -2121.12663491 Ry
     estimated scf accuracy    <      31.71654127 Ry

     total magnetization       =     8.45 Bohr mag/cell
     absolute magnetization    =     8.91 Bohr mag/cell

     iteration #  3     ecut=   100.00 Ry     beta= 0.40
     Davidson diagonalization with overlap
     ethr =  3.78E-03,  avg # of iterations =  2.0

     negative rho (up, down):  0.000E+00 5.140E-05

     total cpu time spent up to now is    11208.0 secs

     total energy              =   -2124.43727073 Ry
     estimated scf accuracy    <      16.79487961 Ry

     total magnetization       =    11.10 Bohr mag/cell
     absolute magnetization    =    11.60 Bohr mag/cell

     iteration #  4     ecut=   100.00 Ry     beta= 0.40
     Davidson diagonalization with overlap
     ethr =  3.78E-03,  avg # of iterations =  2.0

     negative rho (up, down):  0.000E+00 1.013E-04

     total cpu time spent up to now is    14052.1 secs

     total energy              =   -2125.53905282 Ry
     estimated scf accuracy    <       6.24997125 Ry

     total magnetization       =    15.62 Bohr mag/cell
     absolute magnetization    =    15.72 Bohr mag/cell

     iteration #  5     ecut=   100.00 Ry     beta= 0.40
     Davidson diagonalization with overlap
     ethr =  3.31E-03,  avg # of iterations =  1.5

     negative rho (up, down):  0.000E+00 1.178E-04

     total cpu time spent up to now is    16807.3 secs

     total energy              =   -2125.69799733 Ry
     estimated scf accuracy    <       3.75801612 Ry

     total magnetization       =    17.33 Bohr mag/cell
     absolute magnetization    =    17.41 Bohr mag/cell

     iteration #  6     ecut=   100.00 Ry     beta= 0.40
     Davidson diagonalization with overlap
     ethr =  1.99E-03,  avg # of iterations =  1.0

     negative rho (up, down):  0.000E+00 2.406E-04

     total cpu time spent up to now is    19504.8 secs

     total energy              =   -2125.83229776 Ry
     estimated scf accuracy    <       1.26274402 Ry

     total magnetization       =    19.00 Bohr mag/cell
     absolute magnetization    =    19.00 Bohr mag/cell

     iteration #  7     ecut=   100.00 Ry     beta= 0.40
     Davidson diagonalization with overlap
     ethr =  6.68E-04,  avg # of iterations =  1.5

     negative rho (up, down):  0.000E+00 2.988E-04

     total cpu time spent up to now is    22262.9 secs

     total energy              =   -2125.84251023 Ry
     estimated scf accuracy    <       1.21433981 Ry

     total magnetization       =    19.06 Bohr mag/cell
     absolute magnetization    =    19.07 Bohr mag/cell

     iteration #  8     ecut=   100.00 Ry     beta= 0.40
     Davidson diagonalization with overlap
     ethr =  6.43E-04,  avg # of iterations =  1.0

     negative rho (up, down):  0.000E+00 3.602E-04

     total cpu time spent up to now is    24959.0 secs

     total energy              =   -2125.85490713 Ry
     estimated scf accuracy    <       0.98759658 Ry

     total magnetization       =    19.00 Bohr mag/cell
     absolute magnetization    =    19.01 Bohr mag/cell

     iteration #  9     ecut=   100.00 Ry     beta= 0.40
     Davidson diagonalization with overlap
     ethr =  5.23E-04,  avg # of iterations =  1.0

     negative rho (up, down):  0.000E+00 6.978E-04

     total cpu time spent up to now is    27654.6 secs

     total energy              =   -2125.81422663 Ry
     estimated scf accuracy    <       0.43882587 Ry

     total magnetization       =    19.00 Bohr mag/cell
     absolute magnetization    =    19.01 Bohr mag/cell

     iteration # 10     ecut=   100.00 Ry     beta= 0.40
     Davidson diagonalization with overlap
     ethr =  2.32E-04,  avg # of iterations =  2.4

     negative rho (up, down):  0.000E+00 8.904E-04

     total cpu time spent up to now is    30485.1 secs

     total energy              =   -2125.85371178 Ry
     estimated scf accuracy    <       0.33762310 Ry

     total magnetization       =    19.00 Bohr mag/cell
     absolute magnetization    =    19.02 Bohr mag/cell

     iteration # 11     ecut=   100.00 Ry     beta= 0.40
     Davidson diagonalization with overlap
     ethr =  1.79E-04,  avg # of iterations =  2.0

     negative rho (up, down):  0.000E+00 9.798E-04

     total cpu time spent up to now is    33280.8 secs

     total energy              =   -2125.86604037 Ry
     estimated scf accuracy    <       0.30475312 Ry

     total magnetization       =    19.00 Bohr mag/cell
     absolute magnetization    =    19.03 Bohr mag/cell

     iteration # 12     ecut=   100.00 Ry     beta= 0.40
     Davidson diagonalization with overlap
     ethr =  1.61E-04,  avg # of iterations =  1.0

     negative rho (up, down):  0.000E+00 8.539E-04

     total cpu time spent up to now is    35983.9 secs

     total energy              =   -2125.85600328 Ry
     estimated scf accuracy    <       0.28038289 Ry

     total magnetization       =    19.00 Bohr mag/cell
     absolute magnetization    =    19.03 Bohr mag/cell

     iteration # 13     ecut=   100.00 Ry     beta= 0.40
     Davidson diagonalization with overlap
     ethr =  1.48E-04,  avg # of iterations =  1.2

     negative rho (up, down):  0.000E+00 8.828E-04

     total cpu time spent up to now is    38700.9 secs

     total energy              =   -2125.85493175 Ry
     estimated scf accuracy    <       0.13129557 Ry

     total magnetization       =    19.00 Bohr mag/cell
     absolute magnetization    =    19.03 Bohr mag/cell

     iteration # 14     ecut=   100.00 Ry     beta= 0.40
     Davidson diagonalization with overlap
     c_bands:  1 eigenvalues not converged
     c_bands:  1 eigenvalues not converged
     c_bands:  1 eigenvalues not converged
     c_bands:  1 eigenvalues not converged
     ethr =  6.95E-05,  avg # of iterations =  5.6

     negative rho (up, down):  0.000E+00 8.917E-04

     total cpu time spent up to now is    41831.3 secs

     total energy              =   -2125.85663794 Ry
     estimated scf accuracy    <       0.02397260 Ry

     total magnetization       =    19.00 Bohr mag/cell
     absolute magnetization    =    19.04 Bohr mag/cell

     iteration # 15     ecut=   100.00 Ry     beta= 0.40
     Davidson diagonalization with overlap
     c_bands:  1 eigenvalues not converged
     c_bands:  2 eigenvalues not converged
     c_bands:  1 eigenvalues not converged
     c_bands:  1 eigenvalues not converged
     c_bands:  1 eigenvalues not converged
     c_bands:  1 eigenvalues not converged
     c_bands:  2 eigenvalues not converged
     c_bands:  1 eigenvalues not converged
     c_bands:  1 eigenvalues not converged
     c_bands:  1 eigenvalues not converged
     c_bands:  1 eigenvalues not converged
     c_bands:  1 eigenvalues not converged
     c_bands:  1 eigenvalues not converged
     c_bands:  1 eigenvalues not converged
     c_bands:  1 eigenvalues not converged
     c_bands:  1 eigenvalues not converged
     c_bands:  1 eigenvalues not converged
     c_bands:  1 eigenvalues not converged
     c_bands:  1 eigenvalues not converged
     c_bands:  1 eigenvalues not converged
     c_bands:  1 eigenvalues not converged
     c_bands:  1 eigenvalues not converged
     c_bands:  1 eigenvalues not converged
     c_bands:  1 eigenvalues not converged
     ethr =  1.27E-05,  avg # of iterations = 13.9

     negative rho (up, down):  0.000E+00 9.252E-04

     total cpu time spent up to now is    46006.8 secs

     total energy              =   -2125.85554633 Ry
     estimated scf accuracy    <       0.05753549 Ry

     total magnetization       =    19.00 Bohr mag/cell
     absolute magnetization    =    19.05 Bohr mag/cell

     iteration # 16     ecut=   100.00 Ry     beta= 0.40
     Davidson diagonalization with overlap
     ethr =  1.27E-05,  avg # of iterations =  1.1

     negative rho (up, down):  0.000E+00 9.429E-04

     total cpu time spent up to now is    48714.9 secs

     total energy              =   -2125.85882544 Ry
     estimated scf accuracy    <       0.03418637 Ry

     total magnetization       =    19.00 Bohr mag/cell
     absolute magnetization    =    19.04 Bohr mag/cell

     iteration # 17     ecut=   100.00 Ry     beta= 0.40
     Davidson diagonalization with overlap
     ethr =  1.27E-05,  avg # of iterations =  1.0

     negative rho (up, down):  0.000E+00 9.339E-04

     total cpu time spent up to now is    51412.7 secs

     total energy              =   -2125.85879019 Ry
     estimated scf accuracy    <       0.01979946 Ry

     total magnetization       =    19.00 Bohr mag/cell
     absolute magnetization    =    19.05 Bohr mag/cell

     iteration # 18     ecut=   100.00 Ry     beta= 0.40
     Davidson diagonalization with overlap
     ethr =  1.05E-05,  avg # of iterations =  1.0

     negative rho (up, down):  0.000E+00 9.313E-04

     total cpu time spent up to now is    54109.6 secs

     total energy              =   -2125.85892957 Ry
     estimated scf accuracy    <       0.00506298 Ry

     total magnetization       =    19.00 Bohr mag/cell
     absolute magnetization    =    19.05 Bohr mag/cell

     iteration # 19     ecut=   100.00 Ry     beta= 0.40
     Davidson diagonalization with overlap
     c_bands:  1 eigenvalues not converged
     c_bands:  1 eigenvalues not converged
     c_bands:  1 eigenvalues not converged
     ethr =  2.68E-06,  avg # of iterations =  2.8

     negative rho (up, down):  0.000E+00 9.215E-04

     total cpu time spent up to now is    56983.6 secs

     total energy              =   -2125.85897683 Ry
     estimated scf accuracy    <       0.00185397 Ry

     total magnetization       =    19.00 Bohr mag/cell
     absolute magnetization    =    19.05 Bohr mag/cell

     iteration # 20     ecut=   100.00 Ry     beta= 0.40
     Davidson diagonalization with overlap
     c_bands:  1 eigenvalues not converged
     c_bands:  1 eigenvalues not converged
     ethr =  9.81E-07,  avg # of iterations =  2.2

     negative rho (up, down):  0.000E+00 9.213E-04

     total cpu time spent up to now is    59803.3 secs

     total energy              =   -2125.85903327 Ry
     estimated scf accuracy    <       0.00048164 Ry

     total magnetization       =    19.00 Bohr mag/cell
     absolute magnetization    =    19.05 Bohr mag/cell

     iteration # 21     ecut=   100.00 Ry     beta= 0.40
     Davidson diagonalization with overlap
     c_bands:  1 eigenvalues not converged
     ethr =  2.55E-07,  avg # of iterations =  3.5

     negative rho (up, down):  0.000E+00 9.173E-04

     total cpu time spent up to now is    62948.2 secs

     total energy              =   -2125.85909987 Ry
     estimated scf accuracy    <       0.00001034 Ry

     total magnetization       =    19.00 Bohr mag/cell
     absolute magnetization    =    19.06 Bohr mag/cell

     iteration # 22     ecut=   100.00 Ry     beta= 0.40
     Davidson diagonalization with overlap
     ethr =  5.47E-09,  avg # of iterations =  8.0

     negative rho (up, down):  0.000E+00 9.147E-04

     total cpu time spent up to now is    70084.8 secs

     total energy              =   -2125.85912696 Ry
     estimated scf accuracy    <       0.00018841 Ry

     total magnetization       =    19.00 Bohr mag/cell
     absolute magnetization    =    19.06 Bohr mag/cell

     iteration # 23     ecut=   100.00 Ry     beta= 0.40
     Davidson diagonalization with overlap
     ethr =  5.47E-09,  avg # of iterations =  1.0

     negative rho (up, down):  0.000E+00 9.110E-04

     total cpu time spent up to now is    72780.3 secs

     total energy              =   -2125.85912786 Ry
     estimated scf accuracy    <       0.00004031 Ry

     total magnetization       =    19.00 Bohr mag/cell
     absolute magnetization    =    19.06 Bohr mag/cell

     iteration # 24     ecut=   100.00 Ry     beta= 0.40
     Davidson diagonalization with overlap
     ethr =  5.47E-09,  avg # of iterations =  1.0

     negative rho (up, down):  0.000E+00 9.108E-04

     total cpu time spent up to now is    75476.2 secs

     total energy              =   -2125.85912877 Ry
     estimated scf accuracy    <       0.00000582 Ry

     total magnetization       =    19.00 Bohr mag/cell
     absolute magnetization    =    19.06 Bohr mag/cell

     iteration # 25     ecut=   100.00 Ry     beta= 0.40
     Davidson diagonalization with overlap
     ethr =  3.08E-09,  avg # of iterations =  1.0

     negative rho (up, down):  0.000E+00 9.103E-04

     total cpu time spent up to now is    78169.3 secs

     total energy              =   -2125.85912888 Ry
     estimated scf accuracy    <       0.00000293 Ry

     total magnetization       =    19.00 Bohr mag/cell
     absolute magnetization    =    19.06 Bohr mag/cell

     iteration # 26     ecut=   100.00 Ry     beta= 0.40
     Davidson diagonalization with overlap
     ethr =  1.55E-09,  avg # of iterations =  1.0

     negative rho (up, down):  0.000E+00 9.107E-04

     total cpu time spent up to now is    80866.8 secs

     total energy              =   -2125.85912904 Ry
     estimated scf accuracy    <       0.00000040 Ry

     total magnetization       =    19.00 Bohr mag/cell
     absolute magnetization    =    19.06 Bohr mag/cell

     iteration # 27     ecut=   100.00 Ry     beta= 0.40
     Davidson diagonalization with overlap
     ethr =  2.09E-10,  avg # of iterations =  2.4

     negative rho (up, down):  0.000E+00 9.108E-04

     total cpu time spent up to now is    83747.1 secs

     total energy              =   -2125.85912909 Ry
     estimated scf accuracy    <       0.00000032 Ry

     total magnetization       =    19.00 Bohr mag/cell
     absolute magnetization    =    19.06 Bohr mag/cell

     iteration # 28     ecut=   100.00 Ry     beta= 0.40
     Davidson diagonalization with overlap
     ethr =  1.70E-10,  avg # of iterations =  1.5

     negative rho (up, down):  0.000E+00 9.110E-04

     total cpu time spent up to now is    86500.4 secs

     total energy              =   -2125.85912913 Ry
     estimated scf accuracy    <       0.00000024 Ry

     total magnetization       =    19.00 Bohr mag/cell
     absolute magnetization    =    19.05 Bohr mag/cell

     iteration # 29     ecut=   100.00 Ry     beta= 0.40
     Davidson diagonalization with overlap
     ethr =  1.30E-10,  avg # of iterations =  1.1

     negative rho (up, down):  0.000E+00 9.111E-04

     total cpu time spent up to now is    89203.5 secs

     total energy              =   -2125.85912914 Ry
     estimated scf accuracy    <       0.00000005 Ry

     total magnetization       =    19.00 Bohr mag/cell
     absolute magnetization    =    19.05 Bohr mag/cell

     iteration # 30     ecut=   100.00 Ry     beta= 0.40
     Davidson diagonalization with overlap
     ethr =  2.64E-11,  avg # of iterations =  4.3

     negative rho (up, down):  0.000E+00 9.111E-04

     total cpu time spent up to now is    92761.0 secs

     total energy              =   -2125.85912916 Ry
     estimated scf accuracy    <       0.00000004 Ry

     total magnetization       =    19.00 Bohr mag/cell
     absolute magnetization    =    19.05 Bohr mag/cell

     iteration # 31     ecut=   100.00 Ry     beta= 0.40
     Davidson diagonalization with overlap
     ethr =  2.01E-11,  avg # of iterations =  1.6

     negative rho (up, down):  0.000E+00 9.111E-04

     total cpu time spent up to now is    95522.6 secs

     total energy              =   -2125.85912916 Ry
     estimated scf accuracy    <          8.9E-09 Ry

     total magnetization       =    19.00 Bohr mag/cell
     absolute magnetization    =    19.05 Bohr mag/cell

     iteration # 32     ecut=   100.00 Ry     beta= 0.40
     Davidson diagonalization with overlap
     ethr =  4.72E-12,  avg # of iterations =  2.3

     negative rho (up, down):  0.000E+00 9.110E-04

     total cpu time spent up to now is    98460.9 secs

     total energy              =   -2125.85912917 Ry
     estimated scf accuracy    <       0.00000001 Ry

     total magnetization       =    19.00 Bohr mag/cell
     absolute magnetization    =    19.05 Bohr mag/cell

     iteration # 33     ecut=   100.00 Ry     beta= 0.40
     Davidson diagonalization with overlap
     ethr =  4.72E-12,  avg # of iterations =  2.0

     negative rho (up, down):  0.000E+00 9.110E-04

     total cpu time spent up to now is   101274.1 secs

     total energy              =   -2125.85912917 Ry
     estimated scf accuracy    <          5.6E-09 Ry

     total magnetization       =    19.00 Bohr mag/cell
     absolute magnetization    =    19.05 Bohr mag/cell

     iteration # 34     ecut=   100.00 Ry     beta= 0.40
     Davidson diagonalization with overlap
     ethr =  2.98E-12,  avg # of iterations =  1.1

     negative rho (up, down):  0.000E+00 9.110E-04

     total cpu time spent up to now is   103976.5 secs

     total energy              =   -2125.85912917 Ry
     estimated scf accuracy    <          2.9E-09 Ry

     total magnetization       =    19.00 Bohr mag/cell
     absolute magnetization    =    19.05 Bohr mag/cell

     iteration # 35     ecut=   100.00 Ry     beta= 0.40
     Davidson diagonalization with overlap
     ethr =  1.53E-12,  avg # of iterations =  1.1

     negative rho (up, down):  0.000E+00 9.110E-04

     total cpu time spent up to now is   106679.1 secs

     total energy              =   -2125.85912917 Ry
     estimated scf accuracy    <          1.4E-09 Ry

     total magnetization       =    19.00 Bohr mag/cell
     absolute magnetization    =    19.05 Bohr mag/cell

     iteration # 36     ecut=   100.00 Ry     beta= 0.40
     Davidson diagonalization with overlap
     ethr =  7.65E-13,  avg # of iterations =  1.9

     negative rho (up, down):  0.000E+00 9.110E-04

     total cpu time spent up to now is   109479.8 secs

     total energy              =   -2125.85912917 Ry
     estimated scf accuracy    <          6.3E-10 Ry

     total magnetization       =    19.00 Bohr mag/cell
     absolute magnetization    =    19.05 Bohr mag/cell

     iteration # 37     ecut=   100.00 Ry     beta= 0.40
     Davidson diagonalization with overlap
     ethr =  3.36E-13,  avg # of iterations =  2.4

     negative rho (up, down):  0.000E+00 9.110E-04

     total cpu time spent up to now is   112345.2 secs

     total energy              =   -2125.85912917 Ry
     estimated scf accuracy    <          6.9E-10 Ry

     total magnetization       =    19.00 Bohr mag/cell
     absolute magnetization    =    19.05 Bohr mag/cell

     iteration # 38     ecut=   100.00 Ry     beta= 0.40
     Davidson diagonalization with overlap
     ethr =  3.36E-13,  avg # of iterations =  2.0

     negative rho (up, down):  0.000E+00 9.110E-04

     total cpu time spent up to now is   115224.0 secs

     total energy              =   -2125.85912917 Ry
     estimated scf accuracy    <          5.0E-10 Ry

     total magnetization       =    19.00 Bohr mag/cell
     absolute magnetization    =    19.05 Bohr mag/cell

     iteration # 39     ecut=   100.00 Ry     beta= 0.40
     Davidson diagonalization with overlap
     ethr =  2.65E-13,  avg # of iterations =  1.0

     negative rho (up, down):  0.000E+00 9.110E-04

     Magnetic moment per site:
     atom:    1    charge:    7.8801    magn:    0.0007    constr:    0.0000
     atom:    2    charge:   13.0301    magn:    3.6483    constr:    0.0000
     atom:    3    charge:   13.0299    magn:    3.6582    constr:    0.0000
     atom:    4    charge:   13.0301    magn:    3.6484    constr:    0.0000
     atom:    5    charge:   13.0299    magn:    3.6582    constr:    0.0000
     atom:    6    charge:    0.8139    magn:    0.0084    constr:    0.0000
     atom:    7    charge:    0.8098    magn:    0.0093    constr:    0.0000
     atom:    8    charge:    0.8139    magn:    0.0084    constr:    0.0000
     atom:    9    charge:    0.8098    magn:    0.0093    constr:    0.0000
     atom:   10    charge:    4.2220    magn:    0.1445    constr:    0.0000
     atom:   11    charge:    4.2544    magn:    0.1087    constr:    0.0000
     atom:   12    charge:    4.2220    magn:    0.1445    constr:    0.0000
     atom:   13    charge:    4.2544    magn:    0.1087    constr:    0.0000
     atom:   14    charge:    4.2027    magn:    0.1230    constr:    0.0000
     atom:   15    charge:    4.2168    magn:    0.0906    constr:    0.0000
     atom:   16    charge:    4.2027    magn:    0.1230    constr:    0.0000
     atom:   17    charge:    4.2168    magn:    0.0906    constr:    0.0000
     atom:   18    charge:    4.2218    magn:    0.1366    constr:    0.0000
     atom:   19    charge:    4.2045    magn:    0.1400    constr:    0.0000
     atom:   20    charge:    4.2065    magn:    0.1340    constr:    0.0000
     atom:   21    charge:    4.2128    magn:    0.1576    constr:    0.0000
     atom:   22    charge:    4.2218    magn:    0.1366    constr:    0.0000
     atom:   23    charge:    4.2045    magn:    0.1400    constr:    0.0000
     atom:   24    charge:    4.2065    magn:    0.1340    constr:    0.0000
     atom:   25    charge:    4.2128    magn:    0.1576    constr:    0.0000

     total cpu time spent up to now is   117916.0 secs

     End of self-consistent calculation

 ------ SPIN UP ------------


          k = 0.0000 0.0000 0.0000 ( 40219 PWs)   bands (ev):

   -86.3122 -86.3122 -86.2053 -86.2053 -52.4214 -52.4214 -52.3567 -52.3567
   -52.3260 -52.3260 -52.2318 -52.2318 -52.1586 -52.1586 -52.0177 -52.0177
   -46.3693 -18.4317 -18.3357 -18.3014 -16.5910 -16.4180 -16.4034 -16.2233
   -14.4679 -14.4190 -14.3448 -14.3119 -14.1583 -14.1305 -14.0642 -14.0098
   -13.9774 -13.9620 -13.9243 -13.8023  -5.0801  -4.7486  -4.4469  -4.3601
    -2.8708  -2.7857  -2.3866  -2.3827  -2.0725  -2.0074  -1.9741  -1.8288
    -1.7936  -1.7099  -1.6212  -1.5690  -0.9578  -0.8790  -0.6360  -0.4591
    -0.4472  -0.3725  -0.3420  -0.2507  -0.0611  -0.0577   0.1005   0.1284
     0.3061   0.3756   0.4777   0.4838   0.5995   0.6832   0.8494   0.9102
     1.0129   1.0702   1.1801   1.2396   1.3118   1.4220   1.4550   1.4843
     1.6120   1.7905   1.8128   1.8306   1.9574   2.0641   2.1577   2.1943
     2.2897   2.4585   2.5735   2.5759   2.7529   2.7814   2.8205   2.9574
     2.9934   3.0195   3.1705   3.2129   3.2255   3.2809   3.6469   3.6715
     7.2341   9.0716   9.4099   9.9128  10.5354  11.1200  11.1985  11.3854
    11.5162  11.7280

     occupation numbers 
     1.0000   1.0000   1.0000   1.0000   1.0000   1.0000   1.0000   1.0000
     1.0000   1.0000   1.0000   1.0000   1.0000   1.0000   1.0000   1.0000
     1.0000   1.0000   1.0000   1.0000   1.0000   1.0000   1.0000   1.0000
     1.0000   1.0000   1.0000   1.0000   1.0000   1.0000   1.0000   1.0000
     1.0000   1.0000   1.0000   1.0000   1.0000   1.0000   1.0000   1.0000
     1.0000   1.0000   1.0000   1.0000   1.0000   1.0000   1.0000   1.0000
     1.0000   1.0000   1.0000   1.0000   1.0000   1.0000   1.0000   1.0000
     1.0000   1.0000   1.0000   1.0000   1.0000   1.0000   1.0000   1.0000
     1.0000   1.0000   1.0000   1.0000   1.0000   1.0000   1.0000   1.0000
     1.0000   1.0000   1.0000   1.0000   1.0000   1.0000   1.0000   1.0000
     1.0000   1.0000   1.0000   1.0000   1.0000   1.0000   1.0000   1.0000
     1.0000   1.0000   1.0000   1.0000   1.0000   1.0000   1.0000   1.0000
     1.0000   1.0000   1.0000   1.0000   1.0000   1.0000   1.0000   1.0000
     0.0000   0.0000   0.0000   0.0000   0.0000   0.0000   0.0000   0.0000
     0.0000   0.0000

          k = 0.0000 0.0000 0.2454 ( 40205 PWs)   bands (ev):

   -86.3122 -86.3122 -86.2053 -86.2053 -52.4214 -52.4214 -52.3567 -52.3567
   -52.3260 -52.3260 -52.2318 -52.2318 -52.1586 -52.1586 -52.0177 -52.0177
   -46.3693 -18.4316 -18.3356 -18.3016 -16.5759 -16.4121 -16.3913 -16.2221
   -14.4855 -14.4412 -14.3366 -14.3077 -14.1629 -14.1343 -14.0830 -14.0052
   -13.9766 -13.9621 -13.9293 -13.8083  -5.0510  -4.7371  -4.4604  -4.3310
    -2.8459  -2.7705  -2.4370  -2.3200  -2.0686  -1.9885  -1.9758  -1.8437
    -1.7654  -1.7250  -1.6432  -1.5465  -0.9390  -0.8698  -0.6391  -0.4969
    -0.4411  -0.3847  -0.3054  -0.2512  -0.0711  -0.0394   0.0910   0.1188
     0.2531   0.3699   0.4667   0.4972   0.5894   0.7292   0.8428   0.9210
     1.0204   1.0864   1.1627   1.2242   1.2600   1.3913   1.4463   1.5552
     1.5965   1.7663   1.8153   1.8392   1.9460   2.0232   2.1513   2.1825
     2.2991   2.4493   2.5457   2.6091   2.7347   2.7599   2.8517   2.9076
     2.9921   3.0319   3.1372   3.2106   3.2420   3.2887   3.6458   3.6714
     7.3737   9.1282   9.4528   9.9365  10.5703  11.0489  11.1705  11.4141
    11.5152  11.6766

     occupation numbers 
     1.0000   1.0000   1.0000   1.0000   1.0000   1.0000   1.0000   1.0000
     1.0000   1.0000   1.0000   1.0000   1.0000   1.0000   1.0000   1.0000
     1.0000   1.0000   1.0000   1.0000   1.0000   1.0000   1.0000   1.0000
     1.0000   1.0000   1.0000   1.0000   1.0000   1.0000   1.0000   1.0000
     1.0000   1.0000   1.0000   1.0000   1.0000   1.0000   1.0000   1.0000
     1.0000   1.0000   1.0000   1.0000   1.0000   1.0000   1.0000   1.0000
     1.0000   1.0000   1.0000   1.0000   1.0000   1.0000   1.0000   1.0000
     1.0000   1.0000   1.0000   1.0000   1.0000   1.0000   1.0000   1.0000
     1.0000   1.0000   1.0000   1.0000   1.0000   1.0000   1.0000   1.0000
     1.0000   1.0000   1.0000   1.0000   1.0000   1.0000   1.0000   1.0000
     1.0000   1.0000   1.0000   1.0000   1.0000   1.0000   1.0000   1.0000
     1.0000   1.0000   1.0000   1.0000   1.0000   1.0000   1.0000   1.0000
     1.0000   1.0000   1.0000   1.0000   1.0000   1.0000   1.0000   1.0000
     0.0000   0.0000   0.0000   0.0000   0.0000   0.0000   0.0000   0.0000
     0.0000   0.0000

          k = 0.0000 0.0000 0.4908 ( 40238 PWs)   bands (ev):

   -86.3122 -86.3122 -86.2053 -86.2053 -52.4214 -52.4214 -52.3567 -52.3567
   -52.3260 -52.3260 -52.2318 -52.2318 -52.1586 -52.1586 -52.0177 -52.0177
   -46.3693 -18.4316 -18.3356 -18.3020 -16.5347 -16.3954 -16.3613 -16.2217
   -14.5301 -14.4903 -14.3260 -14.3033 -14.1723 -14.1553 -14.0956 -14.0090
   -13.9808 -13.9580 -13.9392 -13.8275  -4.9748  -4.7067  -4.4675  -4.2914
    -2.7951  -2.7229  -2.4381  -2.2870  -2.0727  -1.9779  -1.9424  -1.8268
    -1.7851  -1.7095  -1.6543  -1.5402  -0.9079  -0.8343  -0.6215  -0.5378
    -0.4290  -0.3989  -0.2738  -0.2301  -0.0712  -0.0132   0.0324   0.1288
     0.2076   0.3378   0.4412   0.5033   0.5947   0.7216   0.8776   0.9026
     1.0015   1.0559   1.1167   1.1594   1.2343   1.4125   1.4470   1.5525
     1.6257   1.7182   1.7726   1.8489   1.8882   1.9262   2.1714   2.2000
     2.3085   2.4231   2.5194   2.5939   2.6931   2.7976   2.8648   2.8868
     2.9840   3.0156   3.0995   3.2055   3.2540   3.3084   3.6420   3.6634
     7.7434   9.2655   9.5555  10.0026  10.6426  10.8054  11.1975  11.3939
    11.4882  11.6294

     occupation numbers 
     1.0000   1.0000   1.0000   1.0000   1.0000   1.0000   1.0000   1.0000
     1.0000   1.0000   1.0000   1.0000   1.0000   1.0000   1.0000   1.0000
     1.0000   1.0000   1.0000   1.0000   1.0000   1.0000   1.0000   1.0000
     1.0000   1.0000   1.0000   1.0000   1.0000   1.0000   1.0000   1.0000
     1.0000   1.0000   1.0000   1.0000   1.0000   1.0000   1.0000   1.0000
     1.0000   1.0000   1.0000   1.0000   1.0000   1.0000   1.0000   1.0000
     1.0000   1.0000   1.0000   1.0000   1.0000   1.0000   1.0000   1.0000
     1.0000   1.0000   1.0000   1.0000   1.0000   1.0000   1.0000   1.0000
     1.0000   1.0000   1.0000   1.0000   1.0000   1.0000   1.0000   1.0000
     1.0000   1.0000   1.0000   1.0000   1.0000   1.0000   1.0000   1.0000
     1.0000   1.0000   1.0000   1.0000   1.0000   1.0000   1.0000   1.0000
     1.0000   1.0000   1.0000   1.0000   1.0000   1.0000   1.0000   1.0000
     1.0000   1.0000   1.0000   1.0000   1.0000   1.0000   1.0000   1.0000
     0.0000   0.0000   0.0000   0.0000   0.0000   0.0000   0.0000   0.0000
     0.0000   0.0000

          k = 0.0000 0.0000 0.7363 ( 40234 PWs)   bands (ev):

   -86.3122 -86.3122 -86.2053 -86.2053 -52.4214 -52.4214 -52.3567 -52.3567
   -52.3260 -52.3260 -52.2318 -52.2318 -52.1586 -52.1586 -52.0177 -52.0177
   -46.3693 -18.4315 -18.3355 -18.3025 -16.4804 -16.3754 -16.3247 -16.2289
   -14.5803 -14.5439 -14.3221 -14.3117 -14.1827 -14.1790 -14.0800 -14.0190
   -13.9884 -13.9533 -13.9450 -13.8601  -4.8837  -4.6690  -4.4531  -4.2823
    -2.7519  -2.6589  -2.3892  -2.2851  -2.0896  -1.9777  -1.9257  -1.8151
    -1.7693  -1.7202  -1.6170  -1.5625  -0.8924  -0.7930  -0.5607  -0.4753
    -0.4471  -0.3824  -0.2561  -0.2052  -0.0408   0.0006   0.0447   0.0832
     0.2085   0.3082   0.3998   0.4914   0.5633   0.6387   0.7671   0.8993
     0.9408   0.9888   1.0819   1.1827   1.2543   1.4070   1.4370   1.4623
     1.6158   1.6824   1.7147   1.7802   1.8660   1.9868   2.1780   2.2117
     2.3323   2.3782   2.4767   2.5737   2.6878   2.8450   2.8978   2.9130
     2.9705   2.9966   3.0656   3.1629   3.2768   3.3316   3.6296   3.6524
     8.2417   9.3577   9.6910  10.0891  10.3814  10.8492  11.1756  11.3314
    11.4231  11.5400

     occupation numbers 
     1.0000   1.0000   1.0000   1.0000   1.0000   1.0000   1.0000   1.0000
     1.0000   1.0000   1.0000   1.0000   1.0000   1.0000   1.0000   1.0000
     1.0000   1.0000   1.0000   1.0000   1.0000   1.0000   1.0000   1.0000
     1.0000   1.0000   1.0000   1.0000   1.0000   1.0000   1.0000   1.0000
     1.0000   1.0000   1.0000   1.0000   1.0000   1.0000   1.0000   1.0000
     1.0000   1.0000   1.0000   1.0000   1.0000   1.0000   1.0000   1.0000
     1.0000   1.0000   1.0000   1.0000   1.0000   1.0000   1.0000   1.0000
     1.0000   1.0000   1.0000   1.0000   1.0000   1.0000   1.0000   1.0000
     1.0000   1.0000   1.0000   1.0000   1.0000   1.0000   1.0000   1.0000
     1.0000   1.0000   1.0000   1.0000   1.0000   1.0000   1.0000   1.0000
     1.0000   1.0000   1.0000   1.0000   1.0000   1.0000   1.0000   1.0000
     1.0000   1.0000   1.0000   1.0000   1.0000   1.0000   1.0000   1.0000
     1.0000   1.0000   1.0000   1.0000   1.0000   1.0000   1.0000   1.0000
     0.0000   0.0000   0.0000   0.0000   0.0000   0.0000   0.0000   0.0000
     0.0000   0.0000

          k = 0.0000 0.0000 0.9817 ( 40292 PWs)   bands (ev):

   -86.3122 -86.3122 -86.2053 -86.2053 -52.4214 -52.4214 -52.3568 -52.3567
   -52.3260 -52.3260 -52.2318 -52.2318 -52.1586 -52.1586 -52.0177 -52.0177
   -46.3693 -18.4314 -18.3354 -18.3028 -16.4374 -16.3633 -16.2943 -16.2448
   -14.6125 -14.5795 -14.3258 -14.3227 -14.1941 -14.1844 -14.0614 -14.0153
   -14.0019 -13.9502 -13.9368 -13.8988  -4.8217  -4.6422  -4.4245  -4.3035
    -2.7225  -2.6190  -2.3406  -2.2890  -2.1060  -1.9897  -1.9069  -1.8383
    -1.7771  -1.6918  -1.6021  -1.5650  -0.8887  -0.7640  -0.5307  -0.4562
    -0.3605  -0.3312  -0.1841  -0.1695  -0.0461  -0.0043   0.0516   0.1143
     0.1958   0.2433   0.3331   0.4444   0.4879   0.5400   0.6877   0.8967
     0.9327   0.9702   1.0836   1.1499   1.2523   1.3680   1.3805   1.4348
     1.5705   1.6519   1.7347   1.8096   1.8500   2.0541   2.1345   2.2038
     2.3311   2.3749   2.4588   2.5620   2.7568   2.8521   2.9029   2.9355
     2.9741   3.0039   3.0048   3.1425   3.2817   3.3535   3.6120   3.6499
     8.7629   9.2001   9.8685  10.0728  10.1641  10.9362  11.1391  11.2670
    11.3866  11.4775

     occupation numbers 
     1.0000   1.0000   1.0000   1.0000   1.0000   1.0000   1.0000   1.0000
     1.0000   1.0000   1.0000   1.0000   1.0000   1.0000   1.0000   1.0000
     1.0000   1.0000   1.0000   1.0000   1.0000   1.0000   1.0000   1.0000
     1.0000   1.0000   1.0000   1.0000   1.0000   1.0000   1.0000   1.0000
     1.0000   1.0000   1.0000   1.0000   1.0000   1.0000   1.0000   1.0000
     1.0000   1.0000   1.0000   1.0000   1.0000   1.0000   1.0000   1.0000
     1.0000   1.0000   1.0000   1.0000   1.0000   1.0000   1.0000   1.0000
     1.0000   1.0000   1.0000   1.0000   1.0000   1.0000   1.0000   1.0000
     1.0000   1.0000   1.0000   1.0000   1.0000   1.0000   1.0000   1.0000
     1.0000   1.0000   1.0000   1.0000   1.0000   1.0000   1.0000   1.0000
     1.0000   1.0000   1.0000   1.0000   1.0000   1.0000   1.0000   1.0000
     1.0000   1.0000   1.0000   1.0000   1.0000   1.0000   1.0000   1.0000
     1.0000   1.0000   1.0000   1.0000   1.0000   1.0000   1.0000   1.0000
     0.0000   0.0000   0.0000   0.0000   0.0000   0.0000   0.0000   0.0000
     0.0000   0.0000

          k = 0.0000 0.2391 0.0000 ( 40223 PWs)   bands (ev):

   -86.3122 -86.3122 -86.2053 -86.2053 -52.4214 -52.4214 -52.3567 -52.3567
   -52.3260 -52.3260 -52.2318 -52.2318 -52.1586 -52.1586 -52.0177 -52.0177
   -46.3693 -18.4321 -18.3362 -18.3015 -16.5778 -16.4190 -16.3975 -16.2339
   -14.4704 -14.4169 -14.3513 -14.3108 -14.1786 -14.1413 -14.0666 -13.9922
   -13.9741 -13.9594 -13.9327 -13.7913  -5.0494  -4.7214  -4.4597  -4.3593
    -2.8490  -2.7543  -2.4026  -2.3538  -2.0868  -2.0061  -1.9764  -1.8118
    -1.7956  -1.7131  -1.6359  -1.5483  -0.9638  -0.8915  -0.6542  -0.5619
    -0.4174  -0.3769  -0.3212  -0.2916  -0.1037  -0.0328   0.1291   0.1519
     0.3091   0.3731   0.4424   0.4844   0.6135   0.6921   0.8340   0.8684
     0.9845   1.0948   1.1299   1.2455   1.2733   1.3581   1.4297   1.5533
     1.6485   1.7748   1.7918   1.8220   1.9714   2.0790   2.1654   2.2534
     2.2962   2.3918   2.5575   2.5834   2.7033   2.7709   2.8125   2.9206
     2.9945   3.0575   3.1628   3.2224   3.2956   3.3498   3.6477   3.6819
     7.3842   9.1501   9.4988   9.8174  10.5249  11.0537  11.1724  11.4017
    11.4849  11.6568

     occupation numbers 
     1.0000   1.0000   1.0000   1.0000   1.0000   1.0000   1.0000   1.0000
     1.0000   1.0000   1.0000   1.0000   1.0000   1.0000   1.0000   1.0000
     1.0000   1.0000   1.0000   1.0000   1.0000   1.0000   1.0000   1.0000
     1.0000   1.0000   1.0000   1.0000   1.0000   1.0000   1.0000   1.0000
     1.0000   1.0000   1.0000   1.0000   1.0000   1.0000   1.0000   1.0000
     1.0000   1.0000   1.0000   1.0000   1.0000   1.0000   1.0000   1.0000
     1.0000   1.0000   1.0000   1.0000   1.0000   1.0000   1.0000   1.0000
     1.0000   1.0000   1.0000   1.0000   1.0000   1.0000   1.0000   1.0000
     1.0000   1.0000   1.0000   1.0000   1.0000   1.0000   1.0000   1.0000
     1.0000   1.0000   1.0000   1.0000   1.0000   1.0000   1.0000   1.0000
     1.0000   1.0000   1.0000   1.0000   1.0000   1.0000   1.0000   1.0000
     1.0000   1.0000   1.0000   1.0000   1.0000   1.0000   1.0000   1.0000
     1.0000   1.0000   1.0000   1.0000   1.0000   1.0000   1.0000   1.0000
     0.0000   0.0000   0.0000   0.0000   0.0000   0.0000   0.0000   0.0000
     0.0000   0.0000

          k = 0.0000 0.2391 0.2454 ( 40217 PWs)   bands (ev):

   -86.3122 -86.3122 -86.2053 -86.2053 -52.4214 -52.4214 -52.3567 -52.3567
   -52.3260 -52.3260 -52.2318 -52.2318 -52.1586 -52.1586 -52.0177 -52.0177
   -46.3693 -18.4321 -18.3362 -18.3017 -16.5627 -16.4050 -16.3918 -16.2335
   -14.4862 -14.4395 -14.3451 -14.3060 -14.1919 -14.1453 -14.0694 -13.9972
   -13.9789 -13.9565 -13.9412 -13.7895  -5.0253  -4.7164  -4.4685  -4.3171
    -2.8270  -2.7364  -2.4548  -2.2938  -2.0693  -1.9955  -1.9676  -1.8508
    -1.7725  -1.7393  -1.6539  -1.5064  -0.9291  -0.8946  -0.6376  -0.5498
    -0.4157  -0.4005  -0.2985  -0.2546  -0.1164  -0.0624   0.0818   0.1245
     0.2259   0.3541   0.4258   0.4771   0.6294   0.7616   0.8105   0.8647
     1.0056   1.0717   1.1734   1.2437   1.2638   1.3898   1.4654   1.5470
     1.6288   1.7376   1.7896   1.8233   1.9321   2.0473   2.1551   2.2245
     2.3066   2.3665   2.5544   2.6361   2.7017   2.7383   2.8130   2.9022
     3.0200   3.0441   3.1562   3.2080   3.3044   3.3381   3.6569   3.6802
     7.5069   9.2134   9.5304   9.8451  10.6100  10.9988  11.0955  11.4646
    11.5109  11.6134

     occupation numbers 
     1.0000   1.0000   1.0000   1.0000   1.0000   1.0000   1.0000   1.0000
     1.0000   1.0000   1.0000   1.0000   1.0000   1.0000   1.0000   1.0000
     1.0000   1.0000   1.0000   1.0000   1.0000   1.0000   1.0000   1.0000
     1.0000   1.0000   1.0000   1.0000   1.0000   1.0000   1.0000   1.0000
     1.0000   1.0000   1.0000   1.0000   1.0000   1.0000   1.0000   1.0000
     1.0000   1.0000   1.0000   1.0000   1.0000   1.0000   1.0000   1.0000
     1.0000   1.0000   1.0000   1.0000   1.0000   1.0000   1.0000   1.0000
     1.0000   1.0000   1.0000   1.0000   1.0000   1.0000   1.0000   1.0000
     1.0000   1.0000   1.0000   1.0000   1.0000   1.0000   1.0000   1.0000
     1.0000   1.0000   1.0000   1.0000   1.0000   1.0000   1.0000   1.0000
     1.0000   1.0000   1.0000   1.0000   1.0000   1.0000   1.0000   1.0000
     1.0000   1.0000   1.0000   1.0000   1.0000   1.0000   1.0000   1.0000
     1.0000   1.0000   1.0000   1.0000   1.0000   1.0000   1.0000   1.0000
     0.0000   0.0000   0.0000   0.0000   0.0000   0.0000   0.0000   0.0000
     0.0000   0.0000

          k = 0.0000 0.2391 0.4908 ( 40204 PWs)   bands (ev):

   -86.3122 -86.3122 -86.2053 -86.2053 -52.4214 -52.4214 -52.3567 -52.3567
   -52.3260 -52.3260 -52.2318 -52.2318 -52.1586 -52.1586 -52.0177 -52.0177
   -46.3693 -18.4320 -18.3362 -18.3021 -16.5225 -16.3825 -16.3661 -16.2329
   -14.5280 -14.4869 -14.3379 -14.3081 -14.1995 -14.1582 -14.0912 -13.9998
   -13.9838 -13.9548 -13.9466 -13.8069  -4.9539  -4.6915  -4.4653  -4.2673
    -2.7756  -2.7046  -2.4468  -2.2708  -2.0642  -1.9769  -1.9370  -1.8589
    -1.7752  -1.7278  -1.6590  -1.4993  -0.9212  -0.8547  -0.6063  -0.5257
    -0.4392  -0.3948  -0.2510  -0.2500  -0.1068  -0.0878   0.0173   0.1296
     0.1584   0.3024   0.3999   0.5005   0.6233   0.7045   0.8103   0.8761
     1.0340   1.0913   1.1318   1.1838   1.2832   1.4101   1.4929   1.5693
     1.5894   1.6680   1.7512   1.7974   1.9067   1.9366   2.1398   2.2620
     2.2695   2.3714   2.5463   2.6099   2.6881   2.7721   2.8091   2.9077
     2.9807   3.0533   3.1386   3.2349   3.2791   3.3400   3.6647   3.6679
     7.8509   9.3667   9.6089   9.9270  10.6845  10.8931  11.0546  11.3870
    11.4723  11.5751

     occupation numbers 
     1.0000   1.0000   1.0000   1.0000   1.0000   1.0000   1.0000   1.0000
     1.0000   1.0000   1.0000   1.0000   1.0000   1.0000   1.0000   1.0000
     1.0000   1.0000   1.0000   1.0000   1.0000   1.0000   1.0000   1.0000
     1.0000   1.0000   1.0000   1.0000   1.0000   1.0000   1.0000   1.0000
     1.0000   1.0000   1.0000   1.0000   1.0000   1.0000   1.0000   1.0000
     1.0000   1.0000   1.0000   1.0000   1.0000   1.0000   1.0000   1.0000
     1.0000   1.0000   1.0000   1.0000   1.0000   1.0000   1.0000   1.0000
     1.0000   1.0000   1.0000   1.0000   1.0000   1.0000   1.0000   1.0000
     1.0000   1.0000   1.0000   1.0000   1.0000   1.0000   1.0000   1.0000
     1.0000   1.0000   1.0000   1.0000   1.0000   1.0000   1.0000   1.0000
     1.0000   1.0000   1.0000   1.0000   1.0000   1.0000   1.0000   1.0000
     1.0000   1.0000   1.0000   1.0000   1.0000   1.0000   1.0000   1.0000
     1.0000   1.0000   1.0000   1.0000   1.0000   1.0000   1.0000   1.0000
     0.0000   0.0000   0.0000   0.0000   0.0000   0.0000   0.0000   0.0000
     0.0000   0.0000

          k = 0.0000 0.2391 0.7363 ( 40239 PWs)   bands (ev):

   -86.3122 -86.3122 -86.2053 -86.2053 -52.4214 -52.4214 -52.3567 -52.3567
   -52.3260 -52.3260 -52.2318 -52.2318 -52.1586 -52.1586 -52.0177 -52.0177
   -46.3693 -18.4319 -18.3360 -18.3025 -16.4702 -16.3610 -16.3301 -16.2388
   -14.5768 -14.5395 -14.3360 -14.3242 -14.2022 -14.1748 -14.0872 -14.0095
   -13.9912 -13.9531 -13.9446 -13.8417  -4.8648  -4.6560  -4.4459  -4.2502
    -2.7375  -2.6532  -2.3894  -2.2738  -2.0787  -1.9796  -1.9298  -1.8337
    -1.7726  -1.7019  -1.6259  -1.5363  -0.9221  -0.8187  -0.5553  -0.4581
    -0.4122  -0.3689  -0.2815  -0.2521  -0.0628  -0.0597   0.0043   0.0992
     0.1893   0.2593   0.3602   0.4953   0.5926   0.6205   0.7272   0.9054
     0.9351   1.0181   1.1262   1.2252   1.2606   1.4062   1.4184   1.4632
     1.5909   1.6825   1.7059   1.7929   1.8330   1.9734   2.1607   2.2222
     2.2794   2.4115   2.4677   2.6047   2.6405   2.8246   2.8424   2.9169
     2.9897   3.0559   3.0977   3.2299   3.2777   3.3561   3.6362   3.6753
     8.3210   9.5025   9.6920  10.0372  10.4495  10.8868  11.1552  11.3046
    11.3568  11.5702

     occupation numbers 
     1.0000   1.0000   1.0000   1.0000   1.0000   1.0000   1.0000   1.0000
     1.0000   1.0000   1.0000   1.0000   1.0000   1.0000   1.0000   1.0000
     1.0000   1.0000   1.0000   1.0000   1.0000   1.0000   1.0000   1.0000
     1.0000   1.0000   1.0000   1.0000   1.0000   1.0000   1.0000   1.0000
     1.0000   1.0000   1.0000   1.0000   1.0000   1.0000   1.0000   1.0000
     1.0000   1.0000   1.0000   1.0000   1.0000   1.0000   1.0000   1.0000
     1.0000   1.0000   1.0000   1.0000   1.0000   1.0000   1.0000   1.0000
     1.0000   1.0000   1.0000   1.0000   1.0000   1.0000   1.0000   1.0000
     1.0000   1.0000   1.0000   1.0000   1.0000   1.0000   1.0000   1.0000
     1.0000   1.0000   1.0000   1.0000   1.0000   1.0000   1.0000   1.0000
     1.0000   1.0000   1.0000   1.0000   1.0000   1.0000   1.0000   1.0000
     1.0000   1.0000   1.0000   1.0000   1.0000   1.0000   1.0000   1.0000
     1.0000   1.0000   1.0000   1.0000   1.0000   1.0000   1.0000   1.0000
     0.0000   0.0000   0.0000   0.0000   0.0000   0.0000   0.0000   0.0000
     0.0000   0.0000

          k = 0.0000 0.2391 0.9817 ( 40255 PWs)   bands (ev):

   -86.3122 -86.3122 -86.2053 -86.2053 -52.4214 -52.4214 -52.3568 -52.3567
   -52.3260 -52.3260 -52.2318 -52.2318 -52.1586 -52.1586 -52.0177 -52.0177
   -46.3693 -18.4317 -18.3359 -18.3028 -16.4287 -16.3520 -16.2990 -16.2513
   -14.6092 -14.5757 -14.3373 -14.3338 -14.2112 -14.1844 -14.0687 -14.0045
   -14.0010 -13.9477 -13.9397 -13.8854  -4.7973  -4.6240  -4.4222  -4.2764
    -2.7095  -2.6139  -2.3403  -2.2767  -2.0967  -1.9978  -1.9116  -1.8516
    -1.7775  -1.6643  -1.5933  -1.5618  -0.9248  -0.7941  -0.5352  -0.4226
    -0.3890  -0.3493  -0.2523  -0.1785  -0.0364  -0.0141   0.0284   0.0812
     0.2186   0.2363   0.3033   0.4427   0.5048   0.5618   0.6860   0.8840
     0.9253   0.9599   1.1015   1.1470   1.2859   1.3139   1.3880   1.4496
     1.5465   1.6437   1.7532   1.8048   1.8314   2.0460   2.1659   2.1946
     2.2563   2.3791   2.4760   2.5809   2.6693   2.8422   2.8844   2.9403
     2.9654   3.0470   3.0750   3.1945   3.2856   3.3907   3.6132   3.6779
     8.8105   9.3448   9.8518  10.1119  10.2085  10.9128  11.1079  11.2643
    11.3766  11.5498

     occupation numbers 
     1.0000   1.0000   1.0000   1.0000   1.0000   1.0000   1.0000   1.0000
     1.0000   1.0000   1.0000   1.0000   1.0000   1.0000   1.0000   1.0000
     1.0000   1.0000   1.0000   1.0000   1.0000   1.0000   1.0000   1.0000
     1.0000   1.0000   1.0000   1.0000   1.0000   1.0000   1.0000   1.0000
[...]
     atom    5 type  1   force =     0.07067394    0.15762674   -0.13657871
     atom    6 type  4   force =    -0.04085657    0.02460459    0.01820149
     atom    7 type  4   force =     0.01061143    0.01761527   -0.12711335
     atom    8 type  4   force =     0.04083785   -0.02460835   -0.01823009
     atom    9 type  4   force =    -0.01061454   -0.01761392    0.12713276
     atom   10 type  3   force =    -0.56780634   -0.29561115   -1.03698670
     atom   11 type  3   force =    -0.02271004    0.24845973   -1.51999391
     atom   12 type  3   force =     0.56775181    0.29558461    1.03696115
     atom   13 type  3   force =     0.02269587   -0.24845404    1.52000247
     atom   14 type  3   force =     1.38268954   -0.24416741   -0.63450334
     atom   15 type  3   force =    -1.36922423    0.28297426   -0.16518965
     atom   16 type  3   force =    -1.38269087    0.24416850    0.63448548
     atom   17 type  3   force =     1.36920779   -0.28296656    0.16524280
     atom   18 type  3   force =    -0.07311555   -1.42310175    0.77941350
     atom   19 type  3   force =     0.65816203    0.74299105    0.86987605
     atom   20 type  3   force =    -0.01792117   -1.63735033   -0.94610211
     atom   21 type  3   force =    -0.06931974    1.08263648   -0.50201546
     atom   22 type  3   force =     0.07312555    1.42311590   -0.77942080
     atom   23 type  3   force =    -0.65814640   -0.74298069   -0.86988088
     atom   24 type  3   force =     0.01792064    1.63733122    0.94612967
     atom   25 type  3   force =     0.06932294   -1.08264368    0.50200268
     The ionic contribution  to forces
     atom    1 type  2   force =     0.00054362    0.00040871    0.00016049
     atom    2 type  1   force =     9.49347526    5.53298082   -1.77295029
     atom    3 type  1   force =     3.49563480   -9.35749721   -1.83322620
     atom    4 type  1   force =    -9.49387246   -5.53292677    1.77281026
     atom    5 type  1   force =    -3.49601903    9.35719312    1.83329164
     atom    6 type  4   force =    -2.13459687    1.82415859   -1.99135538
     atom    7 type  4   force =     3.89528902   -1.00914267    0.49049016
     atom    8 type  4   force =     2.13464429   -1.82414014    1.99119743
     atom    9 type  4   force =    -3.89540842    1.00913021   -0.49037665
     atom   10 type  3   force =    -0.54363124    6.01740642    0.25418913
     atom   11 type  3   force =     7.16283877   -3.92036626    2.47416471
     atom   12 type  3   force =     0.54392250   -6.01719494   -0.25382736
     atom   13 type  3   force =    -7.16287864    3.92032610   -2.47433994
     atom   14 type  3   force =     0.80521990    1.45250631    6.74460860
     atom   15 type  3   force =     0.12287241   -3.08028707    4.35040875
     atom   16 type  3   force =    -0.80539902   -1.45250272   -6.74457856
     atom   17 type  3   force =    -0.12244638    3.07996693   -4.35073493
     atom   18 type  3   force =    -5.54810843    8.35749095    0.34148516
     atom   19 type  3   force =     2.31500158   -1.74109975   -2.97704006
     atom   20 type  3   force =     4.48778187    5.65997803    8.22192008
     atom   21 type  3   force =    -8.94451359   -1.22395132   -0.56102721
     atom   22 type  3   force =     5.54817742   -8.35748596   -0.34145250
     atom   23 type  3   force =    -2.31521129    1.74106031    2.97703949
     atom   24 type  3   force =    -4.48768357   -5.65999694   -8.22190693
     atom   25 type  3   force =     8.94436751    1.22398526    0.56105014
     The local contribution  to forces
     atom    1 type  2   force =    -0.00053817   -0.00041677   -0.00017144
     atom    2 type  1   force =    -9.57297784   -5.42558902    1.96704186
     atom    3 type  1   force =    -3.42859545    9.53013519    1.69414777
     atom    4 type  1   force =     9.57337340    5.42554252   -1.96687050
     atom    5 type  1   force =     3.42898010   -9.52985151   -1.69423658
     atom    6 type  4   force =     2.15357271   -1.86132863    1.97209943
     atom    7 type  4   force =    -3.87312337    0.98823094   -0.41310401
     atom    8 type  4   force =    -2.15360817    1.86131061   -1.97195448
     atom    9 type  4   force =     3.87323954   -0.98822080    0.41299782
     atom   10 type  3   force =     1.09423878   -5.74342030    0.75555357
     atom   11 type  3   force =    -7.14937557    3.68201249   -0.96990181
     atom   12 type  3   force =    -1.09446113    5.74323993   -0.75586328
     atom   13 type  3   force =     7.14943388   -3.68197842    0.97004953
     atom   14 type  3   force =    -2.09440379   -1.22158452   -6.13596452
     atom   15 type  3   force =     1.14709491    2.81258849   -4.18127646
     atom   16 type  3   force =     2.09457888    1.22157943    6.13594821
     atom   17 type  3   force =    -1.14750244   -2.81228205    4.18155049
     atom   18 type  3   force =     5.61305610   -6.99805050   -1.09667168
     atom   19 type  3   force =    -2.94007849    1.04189410    2.14330588
     atom   20 type  3   force =    -4.46810549   -4.12114793   -7.31649733
     atom   21 type  3   force =     9.01248549    0.20195359    1.04971808
     atom   22 type  3   force =    -5.61313209    6.99802462    1.09664710
     atom   23 type  3   force =     2.94027137   -1.04187144   -2.14330173
     atom   24 type  3   force =     4.46800628    4.12119596    7.31646303
     atom   25 type  3   force =    -9.01234477   -0.20197286   -1.04972983
     The core correction contribution to forces
     atom    1 type  2   force =     0.00000000    0.00000000    0.00000000
     atom    2 type  1   force =    -0.00233492    0.00061408    0.00036027
     atom    3 type  1   force =     0.00150723   -0.00073875   -0.00010096
     atom    4 type  1   force =     0.00233511   -0.00061409   -0.00036027
     atom    5 type  1   force =    -0.00150713    0.00073855    0.00010129
     atom    6 type  4   force =     0.00476647   -0.00037464    0.00008252
     atom    7 type  4   force =    -0.00195423   -0.00120641    0.01054033
     atom    8 type  4   force =    -0.00476458    0.00037507   -0.00007979
     atom    9 type  4   force =     0.00195449    0.00120633   -0.01054213
     atom   10 type  3   force =     0.00491604    0.00280386    0.00931478
     atom   11 type  3   force =     0.00106256   -0.00263236    0.01335443
     atom   12 type  3   force =    -0.00491574   -0.00280366   -0.00931498
     atom   13 type  3   force =    -0.00106249    0.00263228   -0.01335420
     atom   14 type  3   force =    -0.01322901    0.00246635    0.00664656
     atom   15 type  3   force =     0.01296128   -0.00296119    0.00195722
     atom   16 type  3   force =     0.01322901   -0.00246637   -0.00664635
     atom   17 type  3   force =    -0.01296120    0.00296120   -0.00195773
     atom   18 type  3   force =     0.00019858    0.01381373   -0.00704540
     atom   19 type  3   force =    -0.00629100   -0.00679981   -0.00841989
     atom   20 type  3   force =     0.00035045    0.01576622    0.00943060
     atom   21 type  3   force =     0.00055699   -0.01031593    0.00487924
     atom   22 type  3   force =    -0.00019862   -0.01381371    0.00704537
     atom   23 type  3   force =     0.00629087    0.00679975    0.00841997
     atom   24 type  3   force =    -0.00035040   -0.01576621   -0.00943096
     atom   25 type  3   force =    -0.00055701    0.01031595   -0.00487908
     The Hubbard contrib.    to forces
     atom    1 type  2   force =     0.00000000    0.00000000    0.00000000
     atom    2 type  1   force =     0.00000000    0.00000000    0.00000000
     atom    3 type  1   force =     0.00000000    0.00000000    0.00000000
     atom    4 type  1   force =     0.00000000    0.00000000    0.00000000
     atom    5 type  1   force =     0.00000000    0.00000000    0.00000000
     atom    6 type  4   force =     0.00000000    0.00000000    0.00000000
     atom    7 type  4   force =     0.00000000    0.00000000    0.00000000
     atom    8 type  4   force =     0.00000000    0.00000000    0.00000000
     atom    9 type  4   force =     0.00000000    0.00000000    0.00000000
     atom   10 type  3   force =     0.00000000    0.00000000    0.00000000
     atom   11 type  3   force =     0.00000000    0.00000000    0.00000000
     atom   12 type  3   force =     0.00000000    0.00000000    0.00000000
     atom   13 type  3   force =     0.00000000    0.00000000    0.00000000
     atom   14 type  3   force =     0.00000000    0.00000000    0.00000000
     atom   15 type  3   force =     0.00000000    0.00000000    0.00000000
     atom   16 type  3   force =     0.00000000    0.00000000    0.00000000
     atom   17 type  3   force =     0.00000000    0.00000000    0.00000000
     atom   18 type  3   force =     0.00000000    0.00000000    0.00000000
     atom   19 type  3   force =     0.00000000    0.00000000    0.00000000
     atom   20 type  3   force =     0.00000000    0.00000000    0.00000000
     atom   21 type  3   force =     0.00000000    0.00000000    0.00000000
     atom   22 type  3   force =     0.00000000    0.00000000    0.00000000
     atom   23 type  3   force =     0.00000000    0.00000000    0.00000000
     atom   24 type  3   force =     0.00000000    0.00000000    0.00000000
     atom   25 type  3   force =     0.00000000    0.00000000    0.00000000
     The SCF correction term to forces
     atom    1 type  2   force =    -0.00000103    0.00000102   -0.00000013
     atom    2 type  1   force =    -0.00000261   -0.00000085    0.00000043
     atom    3 type  1   force =    -0.00000286   -0.00000057   -0.00000146
     atom    4 type  1   force =     0.00000216    0.00000025   -0.00000039
     atom    5 type  1   force =     0.00000137   -0.00000084    0.00000061
     atom    6 type  4   force =    -0.00000157   -0.00000109    0.00000073
     atom    7 type  4   force =     0.00000020    0.00000059    0.00000005
     atom    8 type  4   force =     0.00000033    0.00000020   -0.00000020
     atom    9 type  4   force =     0.00000154   -0.00000025    0.00000018
     atom   10 type  3   force =    -0.00000377   -0.00000297   -0.00000256
     atom   11 type  3   force =    -0.00000104    0.00000105    0.00000115
     atom   12 type  3   force =     0.00000038    0.00000046    0.00000001
     atom   13 type  3   force =     0.00000161   -0.00000022   -0.00000023
     atom   14 type  3   force =     0.00000487   -0.00000014    0.00000238
     atom   15 type  3   force =     0.00000069    0.00000025   -0.00000087
     atom   16 type  3   force =     0.00000049    0.00000055   -0.00000021
     atom   17 type  3   force =    -0.00000051   -0.00000042    0.00000037
     atom   18 type  3   force =    -0.00000548    0.00000096    0.00000239
     atom   19 type  3   force =    -0.00000022    0.00000667   -0.00000159
     atom   20 type  3   force =     0.00000000   -0.00000006   -0.00000046
     atom   21 type  3   force =     0.00000115    0.00000026    0.00000052
     atom   22 type  3   force =     0.00000038   -0.00000011    0.00000003
     atom   23 type  3   force =     0.00000124   -0.00000046    0.00000052
     atom   24 type  3   force =    -0.00000047   -0.00000160    0.00000140
     atom   25 type  3   force =     0.00000010   -0.00000574   -0.00000184

     Total force =     0.264578     Total SCF correction =     0.000015


     Computing stress (Cartesian axis) and pressure


     negative rho (up, down):  0.000E+00 9.110E-04
          total   stress  (Ry/bohr**3)                   (kbar)     P=     -108.68
  -0.00127870   0.00017846  -0.00009612         -188.10       26.25      -14.14
   0.00017846  -0.00065151   0.00000432           26.25      -95.84        0.64
  -0.00009612   0.00000432  -0.00028615          -14.14        0.64      -42.09

     kinetic stress (kbar)  23682.11     86.49    -53.73
                               86.49  23831.81     -0.82
                              -53.73     -0.82  23951.72

     local   stress (kbar)  -8683.08   3303.00  -6975.77
                             3303.00 -12815.87  -1350.63
                            -6975.77  -1350.63  -6373.39

     nonloc. stress (kbar)  -6030.68      5.34    -12.56
                                5.34  -5993.00     -7.98
                              -12.56     -7.98  -5999.49

     hartree stress (kbar)  13527.41  -1261.29   2940.42
                            -1261.29  15779.28    599.21
                             2940.42    599.21  13023.13

     exc-cor stress (kbar)  -2518.20     -2.60      3.25
                               -2.60  -2521.97     -0.09
                                3.25     -0.09  -2522.07

     corecor stress (kbar)  -2821.85     -0.02     -0.11
                               -0.02  -2823.26      0.88
                               -0.11      0.88  -2824.30

     ewald   stress (kbar) -17343.82  -2104.68   4084.35
                            -2104.68 -15552.83    760.06
                             4084.35    760.06 -19297.70

     hubbard stress (kbar)      0.00      0.00      0.00
                                0.00      0.00      0.00
                                0.00      0.00      0.00

     DFT-D   stress (kbar)      0.00      0.00      0.00
                                0.00      0.00      0.00
                                0.00      0.00      0.00

     XDM     stress (kbar)      0.00      0.00      0.00
                                0.00      0.00      0.00
                                0.00      0.00      0.00

     dft-nl  stress (kbar)      0.00      0.00      0.00
                                0.00      0.00      0.00
                                0.00      0.00      0.00

     TS-vdW  stress (kbar)      0.00      0.00      0.00
                                0.00      0.00      0.00
                                0.00      0.00      0.00



     init_run     :   1155.36s CPU   1312.02s WALL (       1 calls)
     electrons    : 101621.82s CPU 116579.65s WALL (       1 calls)
     forces       :    146.26s CPU    168.39s WALL (       1 calls)
     stress       :    721.34s CPU    816.63s WALL (       1 calls)

     Called by init_run:
     wfcinit      :   1140.10s CPU   1294.54s WALL (       1 calls)
     wfcinit:atom :      0.67s CPU      0.80s WALL (     316 calls)
     wfcinit:wfcr :   1134.68s CPU   1288.15s WALL (     316 calls)
     potinit      :      5.43s CPU      6.70s WALL (       1 calls)
     hinit0       :      5.72s CPU      6.27s WALL (       1 calls)

     Called by electrons:
     c_bands      :  84102.73s CPU  96433.97s WALL (      39 calls)
     sum_band     :  17224.67s CPU  19807.08s WALL (      39 calls)
     v_of_rho     :    102.27s CPU    115.71s WALL (      40 calls)
     v_h          :      9.01s CPU     10.29s WALL (      40 calls)
     v_xc         :     97.41s CPU    110.62s WALL (      42 calls)
     newd         :     71.04s CPU     82.98s WALL (      40 calls)
     PAW_pot      :     24.78s CPU     27.12s WALL (      40 calls)
     mix_rho      :     81.15s CPU     94.37s WALL (      39 calls)

     Called by c_bands:
     init_us_2    :     74.50s CPU     80.56s WALL (   25596 calls)
     cegterg      :  83143.74s CPU  95279.39s WALL (   12324 calls)

     Called by sum_band:
     sum_band:wei :      0.70s CPU      0.79s WALL (      39 calls)
     sum_band:loo :  17103.97s CPU  19664.65s WALL (      39 calls)
     sum_band:buf :     18.01s CPU     18.70s WALL (   12324 calls)
     sum_band:ini :     29.56s CPU     30.89s WALL (   12324 calls)
     sum_band:cal :   1189.04s CPU   1382.06s WALL (   12324 calls)
     sum_band:bec :      2.92s CPU      2.94s WALL (   12324 calls)
     addusdens    :     93.48s CPU    110.66s WALL (      39 calls)
     addusd:skk   :      0.69s CPU      0.80s WALL (     117 calls)
     addusd:dgemm :      6.62s CPU     10.67s WALL (     234 calls)
     addusd:qvan2 :     85.33s CPU     97.85s WALL (     234 calls)

     Called by *egterg:
     cdiaghg      :   1315.12s CPU   1532.72s WALL (   40567 calls)
     cegterg:over :   4313.04s CPU   4928.06s WALL (   28243 calls)
     cegterg:upda :    199.62s CPU    221.73s WALL (   28243 calls)
     cegterg:last :    388.47s CPU    438.13s WALL (   19708 calls)
     h_psi        :  73843.61s CPU  84624.62s WALL (   40883 calls)
     s_psi        :    430.62s CPU    503.71s WALL (   40883 calls)
     g_psi        :     22.86s CPU     28.93s WALL (   28243 calls)

     Called by h_psi:
     h_psi:calbec :   3409.76s CPU   3936.04s WALL (   40883 calls)
     vloc_psi     :  69927.77s CPU  80103.51s WALL (   40883 calls)
     add_vuspsi   :    455.60s CPU    530.90s WALL (   40883 calls)

     General routines
     calbec       :   4850.56s CPU   5604.34s WALL (   54787 calls)
     fft          :    160.38s CPU    183.90s WALL (    1038 calls)
     ffts         :      2.68s CPU      2.97s WALL (     158 calls)
     fftw         :  84898.41s CPU  97426.68s WALL ( 7596236 calls)
     interpolate  :     12.78s CPU     14.62s WALL (      80 calls)

     Parallel routines
     fft_scatt_xy :    386.93s CPU    392.39s WALL ( 7597432 calls)
     fft_scatt_yz :  83205.97s CPU  95733.13s WALL ( 7597432 calls)

     PAW routines
     PAW_pot      :     24.78s CPU     27.12s WALL (      40 calls)

     PWSCF        :   1d 4h47m CPU   1d 9h 1m WALL


   This run was terminated on:  22:23:56  29Jan2023            

=------------------------------------------------------------------------------=
   JOB DONE.
=------------------------------------------------------------------------------=
Note: The following floating-point exceptions are signalling: IEEE_INVALID_FLAG IEEE_DENORMAL
Note: The following floating-point exceptions are signalling: IEEE_DENORMAL
Note: The following floating-point exceptions are signalling: IEEE_DENORMAL
Note: The following floating-point exceptions are signalling: IEEE_DENORMAL
Note: The following floating-point exceptions are signalling: IEEE_DENORMAL
Note: The following floating-point exceptions are signalling: IEEE_DENORMAL
Note: The following floating-point exceptions are signalling: IEEE_DENORMAL
Note: The following floating-point exceptions are signalling: IEEE_DENORMAL
Note: The following floating-point exceptions are signalling: IEEE_DENORMAL
Note: The following floating-point exceptions are signalling: IEEE_DENORMAL
Note: The following floating-point exceptions are signalling: IEEE_DENORMAL
Note: The following floating-point exceptions are signalling: IEEE_DENORMAL
Note: The following floating-point exceptions are signalling: IEEE_DENORMAL
Note: The following floating-point exceptions are signalling: IEEE_DENORMAL
Note: The following floating-point exceptions are signalling: IEEE_DENORMAL
Note: The following floating-point exceptions are signalling: IEEE_DENORMAL
Note: The following floating-point exceptions are signalling: IEEE_UNDERFLOW_FLAG IEEE_DENORMAL
Note: The following floating-point exceptions are signalling: IEEE_DENORMAL
Note: The following floating-point exceptions are signalling: IEEE_DENORMAL
Note: The following floating-point exceptions are signalling: IEEE_DENORMAL
Note: The following floating-point exceptions are signalling: IEEE_DENORMAL
Note: The following floating-point exceptions are signalling: IEEE_INVALID_FLAG IEEE_DENORMAL
Note: The following floating-point exceptions are signalling: IEEE_DENORMAL
Note: The following floating-point exceptions are signalling: IEEE_DENORMAL
Note: The following floating-point exceptions are signalling: IEEE_DENORMAL
Note: The following floating-point exceptions are signalling: IEEE_DENORMAL
Note: The following floating-point exceptions are signalling: IEEE_DENORMAL
Note: The following floating-point exceptions are signalling: IEEE_DENORMAL
Note: The following floating-point exceptions are signalling: IEEE_DENORMAL
Note: The following floating-point exceptions are signalling: IEEE_DENORMAL
Note: The following floating-point exceptions are signalling: IEEE_DENORMAL
