
     Program PWSCF v.6.7MaX starts on 30Jan2023 at  2: 6:46 

     This program is part of the open-source Quantum ESPRESSO suite
     for quantum simulation of materials; please cite
         "P. Giannozzi et al., J. Phys.:Condens. Matter 21 395502 (2009);
         "P. Giannozzi et al., J. Phys.:Condens. Matter 29 465901 (2017);
          URL http://www.quantum-espresso.org", 
     in publications or presentations arising from this work. More details at
     http://www.quantum-espresso.org/quote

     Parallel version (MPI), running on    32 processors

     MPI processes distributed on     2 nodes
     R & G space division:  proc/nbgrp/npool/nimage =      32
     Reading input from scale_3d-05.in

     Current dimensions of program PWSCF are:
     Max number of different atomic species (ntypx) = 10
     Max number of k-points (npk) =  40000
     Max angular momentum in pseudopotentials (lmaxx) =  3
     Message from routine read_pp_mesh:
     mesh size missing, using the one in header
     file Fe.pbe-spn-kjpaw_psl.0.2.1.UPF: wavefunction(s)  3D renormalized
     file O.pbe-n-kjpaw_psl.0.1.UPF: wavefunction(s)  2P renormalized

     Subspace diagonalization in iterative solution of the eigenvalue problem:
     a serial algorithm will be used


     Parallelization info
     --------------------
     sticks:   dense  smooth     PW     G-vecs:    dense   smooth      PW
     Min         684     253     68                46844    10558    1474
     Max         685     255     70                46846    10560    1475
     Sum       21895    8121   2193              1499053   337887   47169



     bravais-lattice index     =            0
     lattice parameter (alat)  =      20.6483  a.u.
     unit-cell volume          =    2500.8842 (a.u.)^3
     number of atoms/cell      =           25
     number of atomic types    =            4
     number of electrons       =       189.00
     number of Kohn-Sham states=          114
     kinetic-energy cutoff     =     100.0000  Ry
     charge density cutoff     =    1080.0000  Ry
     scf convergence threshold =      2.0E-10
     mixing beta               =       0.4000
     number of iterations used =            8  plain     mixing
     Exchange-correlation= PBE
                           (   1   4   3   4   0   0   0)

     celldm(1)=  20.648310  celldm(2)=   0.000000  celldm(3)=   0.000000
     celldm(4)=   0.000000  celldm(5)=   0.000000  celldm(6)=   0.000000

     crystal axes: (cart. coord. in units of alat)
               a(1) = (   1.000000   0.000000   0.000000 )  
               a(2) = (   0.000000   0.597590   0.000000 )  
               a(3) = (   0.000000   0.000000   0.475375 )  

     reciprocal axes: (cart. coord. in units 2 pi/alat)
               b(1) = (  1.000000  0.000000  0.000000 )  
               b(2) = (  0.000000  1.673388  0.000000 )  
               b(3) = (  0.000000  0.000000  2.103600 )  


     PseudoPot. # 1 for Fe read from file:
     /opt/QEpot/SSSP_precision_pseudos/Fe.pbe-spn-kjpaw_psl.0.2.1.UPF
     MD5 check sum: e86618425769142926afa95317d90200
     Pseudo is Projector augmented-wave + core cor, Zval = 16.0
     Generated using "atomic" code by A. Dal Corso  v.5.0.99 svn rev. 10869
     Shape of augmentation charge: PSQ
     Using radial grid of 1191 points,  6 beta functions with: 
                l(1) =   0
                l(2) =   0
                l(3) =   1
                l(4) =   1
                l(5) =   2
                l(6) =   2
     Q(r) pseudized with 0 coefficients 


     PseudoPot. # 2 for Na read from file:
     /opt/QEpot/SSSP_precision_pseudos/Na_ONCV_PBE-1.0.oncvpsp.upf
     MD5 check sum: 24a298df0a6742ae313db96548fdb2a4
     Pseudo is Norm-conserving, Zval =  9.0
     Generated using ONCVPSP code by D. R. Hamann
     Using radial grid of 1992 points,  4 beta functions with: 
                l(1) =   0
                l(2) =   0
                l(3) =   1
                l(4) =   1

     PseudoPot. # 3 for O  read from file:
     /opt/QEpot/SSSP_precision_pseudos/O.pbe-n-kjpaw_psl.0.1.UPF
     MD5 check sum: 0234752ac141de4415c5fc33072bef88
     Pseudo is Projector augmented-wave + core cor, Zval =  6.0
     Generated using "atomic" code by A. Dal Corso  v.5.0.99 svn rev. 10869
     Shape of augmentation charge: BESSEL
     Using radial grid of 1095 points,  4 beta functions with: 
                l(1) =   0
                l(2) =   0
                l(3) =   1
                l(4) =   1
     Q(r) pseudized with 0 coefficients 


     PseudoPot. # 4 for P  read from file:
     /opt/QEpot/SSSP_precision_pseudos/P.pbe-n-rrkjus_psl.1.0.0.UPF
     MD5 check sum: 8b930f418f0a4573dca56cd030ffe088
     Pseudo is Ultrasoft + core correction, Zval =  5.0
     Generated using "atomic" code by A. Dal Corso  v.5.1
     Using radial grid of 1147 points,  6 beta functions with: 
                l(1) =   0
                l(2) =   0
                l(3) =   1
                l(4) =   1
                l(5) =   2
                l(6) =   2
     Q(r) pseudized with 0 coefficients 


     atomic species   valence    mass     pseudopotential
        Fe            16.00    55.84500     Fe( 1.00)
        Na             9.00    22.98977     Na( 1.00)
        O              6.00    15.99940     O ( 1.00)
        P              5.00    30.97376     P ( 1.00)

     Starting magnetic structure 
     atomic species   magnetization
        Fe           0.312
        Na           0.000
        O            0.000
        P            0.000

     No symmetry found


                                    s                        frac. trans.

      isym =  1     identity                                     

 cryst.   s( 1) = (     1          0          0      )
                  (     0          1          0      )
                  (     0          0          1      )

 cart.    s( 1) = (  1.0000000  0.0000000  0.0000000 )
                  (  0.0000000  1.0000000  0.0000000 )
                  (  0.0000000  0.0000000  1.0000000 )


   Cartesian axes

     site n.     atom                  positions (alat units)
         1           Na  tau(   1) = (   0.9999980   0.0000000   0.2376892  )
         2           Fe  tau(   2) = (   0.2996860   0.4621103   0.4052210  )
         3           Fe  tau(   3) = (   0.2274400   0.2026356   0.2422742  )
         4           Fe  tau(   4) = (   0.7003200   0.1354826   0.0701569  )
         5           Fe  tau(   5) = (   0.7725660   0.3949573   0.2331042  )
         6           P   tau(   6) = (   0.0937970   0.3904700   0.1270004  )
         7           P   tau(   7) = (   0.3977930   0.1502502   0.4496363  )
         8           P   tau(   8) = (   0.9062090   0.2071229   0.3483799  )
         9           P   tau(   9) = (   0.6022130   0.4473427   0.0257411  )
        10           O   tau(  10) = (   0.1764850   0.4101953   0.2541177  )
        11           O   tau(  11) = (   0.3589780   0.1499030   0.1165801  )
        12           O   tau(  12) = (   0.8235200   0.1873976   0.2212592  )
        13           O   tau(  13) = (   0.6410280   0.4476899   0.3587987  )
        14           O   tau(  14) = (   0.4562740   0.4640531   0.0414951  )
        15           O   tau(  15) = (   0.0496550   0.1754697   0.3266747  )
        16           O   tau(  16) = (   0.5437320   0.1335398   0.4338833  )
        17           O   tau(  17) = (   0.9503500   0.4221232   0.1487032  )
        18           O   tau(  18) = (   0.1479210   0.4915428   0.0308162  )
        19           O   tau(  19) = (   0.3206550   0.0491548   0.3653199  )
        20           O   tau(  20) = (   0.8792370   0.3474352   0.3862863  )
        21           O   tau(  21) = (   0.6516400   0.3219271   0.0989903  )
        22           O   tau(  22) = (   0.8520850   0.1060501   0.4445621  )
        23           O   tau(  23) = (   0.6793510   0.5484382   0.1100585  )
        24           O   tau(  24) = (   0.1207690   0.2501571   0.0890915  )
        25           O   tau(  25) = (   0.3483660   0.2756658   0.3763881  )

   Crystallographic axes

     site n.     atom                  positions (cryst. coord.)
         1           Na  tau(   1) = (  0.9999980  0.0000000  0.5000030  )
         2           Fe  tau(   2) = (  0.2996860  0.7732900  0.8524230  )
         3           Fe  tau(   3) = (  0.2274400  0.3390880  0.5096480  )
         4           Fe  tau(   4) = (  0.7003200  0.2267150  0.1475820  )
         5           Fe  tau(   5) = (  0.7725660  0.6609170  0.4903580  )
         6           P   tau(   6) = (  0.0937970  0.6534080  0.2671580  )
         7           P   tau(   7) = (  0.3977930  0.2514270  0.9458550  )
         8           P   tau(   8) = (  0.9062090  0.3465970  0.7328520  )
         9           P   tau(   9) = (  0.6022130  0.7485780  0.0541490  )
        10           O   tau(  10) = (  0.1764850  0.6864160  0.5345620  )
        11           O   tau(  11) = (  0.3589780  0.2508460  0.2452380  )
        12           O   tau(  12) = (  0.8235200  0.3135890  0.4654410  )
        13           O   tau(  13) = (  0.6410280  0.7491590  0.7547690  )
        14           O   tau(  14) = (  0.4562740  0.7765410  0.0872890  )
        15           O   tau(  15) = (  0.0496550  0.2936290  0.6871930  )
        16           O   tau(  16) = (  0.5437320  0.2234640  0.9127170  )
        17           O   tau(  17) = (  0.9503500  0.7063760  0.3128120  )
        18           O   tau(  18) = (  0.1479210  0.8225420  0.0648250  )
        19           O   tau(  19) = (  0.3206550  0.0822550  0.7684870  )
        20           O   tau(  20) = (  0.8792370  0.5813940  0.8125920  )
        21           O   tau(  21) = (  0.6516400  0.5387090  0.2082360  )
        22           O   tau(  22) = (  0.8520850  0.1774630  0.9351810  )
        23           O   tau(  23) = (  0.6793510  0.9177500  0.2315190  )
        24           O   tau(  24) = (  0.1207690  0.4186100  0.1874130  )
        25           O   tau(  25) = (  0.3483660  0.4612960  0.7917700  )

     number of k points=   158  Marzari-Vanderbilt smearing, width (Ry)=  0.0073
                       cart. coord. in units 2pi/alat
        k(    1) = (   0.0000000   0.0000000   0.0000000), wk =   0.0031746
        k(    2) = (   0.0000000   0.0000000   0.2337334), wk =   0.0063492
        k(    3) = (   0.0000000   0.0000000   0.4674667), wk =   0.0063492
        k(    4) = (   0.0000000   0.0000000   0.7012001), wk =   0.0063492
        k(    5) = (   0.0000000   0.0000000   0.9349334), wk =   0.0063492
        k(    6) = (   0.0000000   0.2390555   0.0000000), wk =   0.0063492
        k(    7) = (   0.0000000   0.2390555   0.2337334), wk =   0.0063492
        k(    8) = (   0.0000000   0.2390555   0.4674667), wk =   0.0063492
        k(    9) = (   0.0000000   0.2390555   0.7012001), wk =   0.0063492
        k(   10) = (   0.0000000   0.2390555   0.9349334), wk =   0.0063492
        k(   11) = (   0.0000000   0.4781110   0.0000000), wk =   0.0063492
        k(   12) = (   0.0000000   0.4781110   0.2337334), wk =   0.0063492
        k(   13) = (   0.0000000   0.4781110   0.4674667), wk =   0.0063492
        k(   14) = (   0.0000000   0.4781110   0.7012001), wk =   0.0063492
        k(   15) = (   0.0000000   0.4781110   0.9349334), wk =   0.0063492
        k(   16) = (   0.0000000   0.7171664   0.0000000), wk =   0.0063492
        k(   17) = (   0.0000000   0.7171664   0.2337334), wk =   0.0063492
        k(   18) = (   0.0000000   0.7171664   0.4674667), wk =   0.0063492
        k(   19) = (   0.0000000   0.7171664   0.7012001), wk =   0.0063492
        k(   20) = (   0.0000000   0.7171664   0.9349334), wk =   0.0063492
        k(   21) = (   0.2000000   0.0000000   0.0000000), wk =   0.0063492
        k(   22) = (   0.2000000   0.0000000   0.2337334), wk =   0.0063492
        k(   23) = (   0.2000000   0.0000000   0.4674667), wk =   0.0063492
        k(   24) = (   0.2000000   0.0000000   0.7012001), wk =   0.0063492
        k(   25) = (   0.2000000   0.0000000   0.9349334), wk =   0.0063492
        k(   26) = (   0.2000000   0.2390555   0.0000000), wk =   0.0063492
        k(   27) = (   0.2000000   0.2390555   0.2337334), wk =   0.0063492
        k(   28) = (   0.2000000   0.2390555   0.4674667), wk =   0.0063492
        k(   29) = (   0.2000000   0.2390555   0.7012001), wk =   0.0063492
        k(   30) = (   0.2000000   0.2390555   0.9349334), wk =   0.0063492
        k(   31) = (   0.2000000   0.4781110   0.0000000), wk =   0.0063492
        k(   32) = (   0.2000000   0.4781110   0.2337334), wk =   0.0063492
        k(   33) = (   0.2000000   0.4781110   0.4674667), wk =   0.0063492
        k(   34) = (   0.2000000   0.4781110   0.7012001), wk =   0.0063492
        k(   35) = (   0.2000000   0.4781110   0.9349334), wk =   0.0063492
        k(   36) = (   0.2000000   0.7171664   0.0000000), wk =   0.0063492
        k(   37) = (   0.2000000   0.7171664   0.2337334), wk =   0.0063492
        k(   38) = (   0.2000000   0.7171664   0.4674667), wk =   0.0063492
        k(   39) = (   0.2000000   0.7171664   0.7012001), wk =   0.0063492
        k(   40) = (   0.2000000   0.7171664   0.9349334), wk =   0.0063492
        k(   41) = (   0.4000000   0.0000000   0.0000000), wk =   0.0063492
        k(   42) = (   0.4000000   0.0000000   0.2337334), wk =   0.0063492
        k(   43) = (   0.4000000   0.0000000   0.4674667), wk =   0.0063492
        k(   44) = (   0.4000000   0.0000000   0.7012001), wk =   0.0063492
        k(   45) = (   0.4000000   0.0000000   0.9349334), wk =   0.0063492
        k(   46) = (   0.4000000   0.2390555   0.0000000), wk =   0.0063492
        k(   47) = (   0.4000000   0.2390555   0.2337334), wk =   0.0063492
        k(   48) = (   0.4000000   0.2390555   0.4674667), wk =   0.0063492
        k(   49) = (   0.4000000   0.2390555   0.7012001), wk =   0.0063492
        k(   50) = (   0.4000000   0.2390555   0.9349334), wk =   0.0063492
        k(   51) = (   0.4000000   0.4781110   0.0000000), wk =   0.0063492
        k(   52) = (   0.4000000   0.4781110   0.2337334), wk =   0.0063492
        k(   53) = (   0.4000000   0.4781110   0.4674667), wk =   0.0063492
        k(   54) = (   0.4000000   0.4781110   0.7012001), wk =   0.0063492
        k(   55) = (   0.4000000   0.4781110   0.9349334), wk =   0.0063492
        k(   56) = (   0.4000000   0.7171664   0.0000000), wk =   0.0063492
        k(   57) = (   0.4000000   0.7171664   0.2337334), wk =   0.0063492
        k(   58) = (   0.4000000   0.7171664   0.4674667), wk =   0.0063492
        k(   59) = (   0.4000000   0.7171664   0.7012001), wk =   0.0063492
        k(   60) = (   0.4000000   0.7171664   0.9349334), wk =   0.0063492
        k(   61) = (   0.0000000  -0.2390555   0.2337334), wk =   0.0063492
        k(   62) = (   0.0000000  -0.2390555   0.4674667), wk =   0.0063492
        k(   63) = (   0.0000000  -0.2390555   0.7012001), wk =   0.0063492
        k(   64) = (   0.0000000  -0.2390555   0.9349334), wk =   0.0063492
        k(   65) = (   0.0000000  -0.4781110   0.2337334), wk =   0.0063492
        k(   66) = (   0.0000000  -0.4781110   0.4674667), wk =   0.0063492
        k(   67) = (   0.0000000  -0.4781110   0.7012001), wk =   0.0063492
        k(   68) = (   0.0000000  -0.4781110   0.9349334), wk =   0.0063492
        k(   69) = (   0.0000000  -0.7171664   0.2337334), wk =   0.0063492
        k(   70) = (   0.0000000  -0.7171664   0.4674667), wk =   0.0063492
        k(   71) = (   0.0000000  -0.7171664   0.7012001), wk =   0.0063492
        k(   72) = (   0.0000000  -0.7171664   0.9349334), wk =   0.0063492
        k(   73) = (  -0.2000000   0.0000000   0.2337334), wk =   0.0063492
        k(   74) = (  -0.2000000   0.0000000   0.4674667), wk =   0.0063492
        k(   75) = (  -0.2000000   0.0000000   0.7012001), wk =   0.0063492
        k(   76) = (  -0.2000000   0.0000000   0.9349334), wk =   0.0063492
        k(   77) = (  -0.2000000   0.2390555   0.0000000), wk =   0.0063492
        k(   78) = (  -0.2000000  -0.2390555   0.2337334), wk =   0.0063492
        k(   79) = (  -0.2000000   0.2390555  -0.2337334), wk =   0.0063492
        k(   80) = (   0.2000000  -0.2390555  -0.2337334), wk =   0.0063492
        k(   81) = (  -0.2000000  -0.2390555   0.4674667), wk =   0.0063492
        k(   82) = (  -0.2000000   0.2390555  -0.4674667), wk =   0.0063492
        k(   83) = (   0.2000000  -0.2390555  -0.4674667), wk =   0.0063492
        k(   84) = (  -0.2000000  -0.2390555   0.7012001), wk =   0.0063492
        k(   85) = (  -0.2000000   0.2390555  -0.7012001), wk =   0.0063492
        k(   86) = (   0.2000000  -0.2390555  -0.7012001), wk =   0.0063492
        k(   87) = (  -0.2000000  -0.2390555   0.9349334), wk =   0.0063492
        k(   88) = (  -0.2000000   0.2390555  -0.9349334), wk =   0.0063492
        k(   89) = (   0.2000000  -0.2390555  -0.9349334), wk =   0.0063492
        k(   90) = (  -0.2000000   0.4781110   0.0000000), wk =   0.0063492
        k(   91) = (  -0.2000000  -0.4781110   0.2337334), wk =   0.0063492
        k(   92) = (  -0.2000000   0.4781110  -0.2337334), wk =   0.0063492
        k(   93) = (   0.2000000  -0.4781110  -0.2337334), wk =   0.0063492
        k(   94) = (  -0.2000000  -0.4781110   0.4674667), wk =   0.0063492
        k(   95) = (  -0.2000000   0.4781110  -0.4674667), wk =   0.0063492
        k(   96) = (   0.2000000  -0.4781110  -0.4674667), wk =   0.0063492
        k(   97) = (  -0.2000000  -0.4781110   0.7012001), wk =   0.0063492
        k(   98) = (  -0.2000000   0.4781110  -0.7012001), wk =   0.0063492
        k(   99) = (   0.2000000  -0.4781110  -0.7012001), wk =   0.0063492
        k(  100) = (  -0.2000000  -0.4781110   0.9349334), wk =   0.0063492
        k(  101) = (  -0.2000000   0.4781110  -0.9349334), wk =   0.0063492
        k(  102) = (   0.2000000  -0.4781110  -0.9349334), wk =   0.0063492
        k(  103) = (  -0.2000000   0.7171664   0.0000000), wk =   0.0063492
        k(  104) = (  -0.2000000  -0.7171664   0.2337334), wk =   0.0063492
        k(  105) = (  -0.2000000   0.7171664  -0.2337334), wk =   0.0063492
        k(  106) = (   0.2000000  -0.7171664  -0.2337334), wk =   0.0063492
        k(  107) = (  -0.2000000  -0.7171664   0.4674667), wk =   0.0063492
        k(  108) = (  -0.2000000   0.7171664  -0.4674667), wk =   0.0063492
        k(  109) = (   0.2000000  -0.7171664  -0.4674667), wk =   0.0063492
        k(  110) = (  -0.2000000  -0.7171664   0.7012001), wk =   0.0063492
        k(  111) = (  -0.2000000   0.7171664  -0.7012001), wk =   0.0063492
        k(  112) = (   0.2000000  -0.7171664  -0.7012001), wk =   0.0063492
        k(  113) = (  -0.2000000  -0.7171664   0.9349334), wk =   0.0063492
        k(  114) = (  -0.2000000   0.7171664  -0.9349334), wk =   0.0063492
        k(  115) = (   0.2000000  -0.7171664  -0.9349334), wk =   0.0063492
        k(  116) = (  -0.4000000   0.0000000   0.2337334), wk =   0.0063492
        k(  117) = (  -0.4000000   0.0000000   0.4674667), wk =   0.0063492
        k(  118) = (  -0.4000000   0.0000000   0.7012001), wk =   0.0063492
        k(  119) = (  -0.4000000   0.0000000   0.9349334), wk =   0.0063492
        k(  120) = (  -0.4000000   0.2390555   0.0000000), wk =   0.0063492
        k(  121) = (  -0.4000000  -0.2390555   0.2337334), wk =   0.0063492
        k(  122) = (  -0.4000000   0.2390555  -0.2337334), wk =   0.0063492
        k(  123) = (   0.4000000  -0.2390555  -0.2337334), wk =   0.0063492
        k(  124) = (  -0.4000000  -0.2390555   0.4674667), wk =   0.0063492
        k(  125) = (  -0.4000000   0.2390555  -0.4674667), wk =   0.0063492
        k(  126) = (   0.4000000  -0.2390555  -0.4674667), wk =   0.0063492
        k(  127) = (  -0.4000000  -0.2390555   0.7012001), wk =   0.0063492
        k(  128) = (  -0.4000000   0.2390555  -0.7012001), wk =   0.0063492
        k(  129) = (   0.4000000  -0.2390555  -0.7012001), wk =   0.0063492
        k(  130) = (  -0.4000000  -0.2390555   0.9349334), wk =   0.0063492
        k(  131) = (  -0.4000000   0.2390555  -0.9349334), wk =   0.0063492
        k(  132) = (   0.4000000  -0.2390555  -0.9349334), wk =   0.0063492
        k(  133) = (  -0.4000000   0.4781110   0.0000000), wk =   0.0063492
        k(  134) = (  -0.4000000  -0.4781110   0.2337334), wk =   0.0063492
        k(  135) = (  -0.4000000   0.4781110  -0.2337334), wk =   0.0063492
        k(  136) = (   0.4000000  -0.4781110  -0.2337334), wk =   0.0063492
        k(  137) = (  -0.4000000  -0.4781110   0.4674667), wk =   0.0063492
        k(  138) = (  -0.4000000   0.4781110  -0.4674667), wk =   0.0063492
        k(  139) = (   0.4000000  -0.4781110  -0.4674667), wk =   0.0063492
        k(  140) = (  -0.4000000  -0.4781110   0.7012001), wk =   0.0063492
        k(  141) = (  -0.4000000   0.4781110  -0.7012001), wk =   0.0063492
        k(  142) = (   0.4000000  -0.4781110  -0.7012001), wk =   0.0063492
        k(  143) = (  -0.4000000  -0.4781110   0.9349334), wk =   0.0063492
        k(  144) = (  -0.4000000   0.4781110  -0.9349334), wk =   0.0063492
        k(  145) = (   0.4000000  -0.4781110  -0.9349334), wk =   0.0063492
        k(  146) = (  -0.4000000   0.7171664   0.0000000), wk =   0.0063492
        k(  147) = (  -0.4000000  -0.7171664   0.2337334), wk =   0.0063492
        k(  148) = (  -0.4000000   0.7171664  -0.2337334), wk =   0.0063492
        k(  149) = (   0.4000000  -0.7171664  -0.2337334), wk =   0.0063492
        k(  150) = (  -0.4000000  -0.7171664   0.4674667), wk =   0.0063492
        k(  151) = (  -0.4000000   0.7171664  -0.4674667), wk =   0.0063492
        k(  152) = (   0.4000000  -0.7171664  -0.4674667), wk =   0.0063492
        k(  153) = (  -0.4000000  -0.7171664   0.7012001), wk =   0.0063492
        k(  154) = (  -0.4000000   0.7171664  -0.7012001), wk =   0.0063492
        k(  155) = (   0.4000000  -0.7171664  -0.7012001), wk =   0.0063492
        k(  156) = (  -0.4000000  -0.7171664   0.9349334), wk =   0.0063492
        k(  157) = (  -0.4000000   0.7171664  -0.9349334), wk =   0.0063492
        k(  158) = (   0.4000000  -0.7171664  -0.9349334), wk =   0.0063492

                       cryst. coord.
        k(    1) = (   0.0000000   0.0000000   0.0000000), wk =   0.0031746
        k(    2) = (   0.0000000   0.0000000   0.1111111), wk =   0.0063492
        k(    3) = (   0.0000000   0.0000000   0.2222222), wk =   0.0063492
        k(    4) = (   0.0000000   0.0000000   0.3333333), wk =   0.0063492
        k(    5) = (   0.0000000   0.0000000   0.4444444), wk =   0.0063492
        k(    6) = (   0.0000000   0.1428571   0.0000000), wk =   0.0063492
        k(    7) = (   0.0000000   0.1428571   0.1111111), wk =   0.0063492
        k(    8) = (   0.0000000   0.1428571   0.2222222), wk =   0.0063492
        k(    9) = (   0.0000000   0.1428571   0.3333333), wk =   0.0063492
        k(   10) = (   0.0000000   0.1428571   0.4444444), wk =   0.0063492
        k(   11) = (   0.0000000   0.2857143   0.0000000), wk =   0.0063492
        k(   12) = (   0.0000000   0.2857143   0.1111111), wk =   0.0063492
        k(   13) = (   0.0000000   0.2857143   0.2222222), wk =   0.0063492
        k(   14) = (   0.0000000   0.2857143   0.3333333), wk =   0.0063492
        k(   15) = (   0.0000000   0.2857143   0.4444444), wk =   0.0063492
        k(   16) = (   0.0000000   0.4285714   0.0000000), wk =   0.0063492
        k(   17) = (   0.0000000   0.4285714   0.1111111), wk =   0.0063492
        k(   18) = (   0.0000000   0.4285714   0.2222222), wk =   0.0063492
        k(   19) = (   0.0000000   0.4285714   0.3333333), wk =   0.0063492
        k(   20) = (   0.0000000   0.4285714   0.4444444), wk =   0.0063492
        k(   21) = (   0.2000000   0.0000000   0.0000000), wk =   0.0063492
        k(   22) = (   0.2000000   0.0000000   0.1111111), wk =   0.0063492
        k(   23) = (   0.2000000   0.0000000   0.2222222), wk =   0.0063492
        k(   24) = (   0.2000000   0.0000000   0.3333333), wk =   0.0063492
        k(   25) = (   0.2000000   0.0000000   0.4444444), wk =   0.0063492
        k(   26) = (   0.2000000   0.1428571   0.0000000), wk =   0.0063492
        k(   27) = (   0.2000000   0.1428571   0.1111111), wk =   0.0063492
        k(   28) = (   0.2000000   0.1428571   0.2222222), wk =   0.0063492
        k(   29) = (   0.2000000   0.1428571   0.3333333), wk =   0.0063492
        k(   30) = (   0.2000000   0.1428571   0.4444444), wk =   0.0063492
        k(   31) = (   0.2000000   0.2857143   0.0000000), wk =   0.0063492
        k(   32) = (   0.2000000   0.2857143   0.1111111), wk =   0.0063492
        k(   33) = (   0.2000000   0.2857143   0.2222222), wk =   0.0063492
        k(   34) = (   0.2000000   0.2857143   0.3333333), wk =   0.0063492
        k(   35) = (   0.2000000   0.2857143   0.4444444), wk =   0.0063492
        k(   36) = (   0.2000000   0.4285714   0.0000000), wk =   0.0063492
        k(   37) = (   0.2000000   0.4285714   0.1111111), wk =   0.0063492
        k(   38) = (   0.2000000   0.4285714   0.2222222), wk =   0.0063492
        k(   39) = (   0.2000000   0.4285714   0.3333333), wk =   0.0063492
        k(   40) = (   0.2000000   0.4285714   0.4444444), wk =   0.0063492
        k(   41) = (   0.4000000   0.0000000   0.0000000), wk =   0.0063492
        k(   42) = (   0.4000000   0.0000000   0.1111111), wk =   0.0063492
        k(   43) = (   0.4000000   0.0000000   0.2222222), wk =   0.0063492
        k(   44) = (   0.4000000   0.0000000   0.3333333), wk =   0.0063492
        k(   45) = (   0.4000000   0.0000000   0.4444444), wk =   0.0063492
        k(   46) = (   0.4000000   0.1428571   0.0000000), wk =   0.0063492
        k(   47) = (   0.4000000   0.1428571   0.1111111), wk =   0.0063492
        k(   48) = (   0.4000000   0.1428571   0.2222222), wk =   0.0063492
        k(   49) = (   0.4000000   0.1428571   0.3333333), wk =   0.0063492
        k(   50) = (   0.4000000   0.1428571   0.4444444), wk =   0.0063492
        k(   51) = (   0.4000000   0.2857143   0.0000000), wk =   0.0063492
        k(   52) = (   0.4000000   0.2857143   0.1111111), wk =   0.0063492
        k(   53) = (   0.4000000   0.2857143   0.2222222), wk =   0.0063492
        k(   54) = (   0.4000000   0.2857143   0.3333333), wk =   0.0063492
        k(   55) = (   0.4000000   0.2857143   0.4444444), wk =   0.0063492
        k(   56) = (   0.4000000   0.4285714   0.0000000), wk =   0.0063492
        k(   57) = (   0.4000000   0.4285714   0.1111111), wk =   0.0063492
        k(   58) = (   0.4000000   0.4285714   0.2222222), wk =   0.0063492
        k(   59) = (   0.4000000   0.4285714   0.3333333), wk =   0.0063492
        k(   60) = (   0.4000000   0.4285714   0.4444444), wk =   0.0063492
        k(   61) = (   0.0000000  -0.1428571   0.1111111), wk =   0.0063492
        k(   62) = (   0.0000000  -0.1428571   0.2222222), wk =   0.0063492
        k(   63) = (   0.0000000  -0.1428571   0.3333333), wk =   0.0063492
        k(   64) = (   0.0000000  -0.1428571   0.4444444), wk =   0.0063492
        k(   65) = (   0.0000000  -0.2857143   0.1111111), wk =   0.0063492
        k(   66) = (   0.0000000  -0.2857143   0.2222222), wk =   0.0063492
        k(   67) = (   0.0000000  -0.2857143   0.3333333), wk =   0.0063492
        k(   68) = (   0.0000000  -0.2857143   0.4444444), wk =   0.0063492
        k(   69) = (   0.0000000  -0.4285714   0.1111111), wk =   0.0063492
        k(   70) = (   0.0000000  -0.4285714   0.2222222), wk =   0.0063492
        k(   71) = (   0.0000000  -0.4285714   0.3333333), wk =   0.0063492
        k(   72) = (   0.0000000  -0.4285714   0.4444444), wk =   0.0063492
        k(   73) = (  -0.2000000   0.0000000   0.1111111), wk =   0.0063492
        k(   74) = (  -0.2000000   0.0000000   0.2222222), wk =   0.0063492
        k(   75) = (  -0.2000000   0.0000000   0.3333333), wk =   0.0063492
        k(   76) = (  -0.2000000   0.0000000   0.4444444), wk =   0.0063492
        k(   77) = (  -0.2000000   0.1428571   0.0000000), wk =   0.0063492
        k(   78) = (  -0.2000000  -0.1428571   0.1111111), wk =   0.0063492
        k(   79) = (  -0.2000000   0.1428571  -0.1111111), wk =   0.0063492
        k(   80) = (   0.2000000  -0.1428571  -0.1111111), wk =   0.0063492
        k(   81) = (  -0.2000000  -0.1428571   0.2222222), wk =   0.0063492
        k(   82) = (  -0.2000000   0.1428571  -0.2222222), wk =   0.0063492
        k(   83) = (   0.2000000  -0.1428571  -0.2222222), wk =   0.0063492
        k(   84) = (  -0.2000000  -0.1428571   0.3333333), wk =   0.0063492
        k(   85) = (  -0.2000000   0.1428571  -0.3333333), wk =   0.0063492
        k(   86) = (   0.2000000  -0.1428571  -0.3333333), wk =   0.0063492
        k(   87) = (  -0.2000000  -0.1428571   0.4444444), wk =   0.0063492
        k(   88) = (  -0.2000000   0.1428571  -0.4444444), wk =   0.0063492
        k(   89) = (   0.2000000  -0.1428571  -0.4444444), wk =   0.0063492
        k(   90) = (  -0.2000000   0.2857143   0.0000000), wk =   0.0063492
        k(   91) = (  -0.2000000  -0.2857143   0.1111111), wk =   0.0063492
        k(   92) = (  -0.2000000   0.2857143  -0.1111111), wk =   0.0063492
        k(   93) = (   0.2000000  -0.2857143  -0.1111111), wk =   0.0063492
        k(   94) = (  -0.2000000  -0.2857143   0.2222222), wk =   0.0063492
        k(   95) = (  -0.2000000   0.2857143  -0.2222222), wk =   0.0063492
        k(   96) = (   0.2000000  -0.2857143  -0.2222222), wk =   0.0063492
        k(   97) = (  -0.2000000  -0.2857143   0.3333333), wk =   0.0063492
        k(   98) = (  -0.2000000   0.2857143  -0.3333333), wk =   0.0063492
        k(   99) = (   0.2000000  -0.2857143  -0.3333333), wk =   0.0063492
        k(  100) = (  -0.2000000  -0.2857143   0.4444444), wk =   0.0063492
        k(  101) = (  -0.2000000   0.2857143  -0.4444444), wk =   0.0063492
        k(  102) = (   0.2000000  -0.2857143  -0.4444444), wk =   0.0063492
        k(  103) = (  -0.2000000   0.4285714   0.0000000), wk =   0.0063492
        k(  104) = (  -0.2000000  -0.4285714   0.1111111), wk =   0.0063492
        k(  105) = (  -0.2000000   0.4285714  -0.1111111), wk =   0.0063492
        k(  106) = (   0.2000000  -0.4285714  -0.1111111), wk =   0.0063492
        k(  107) = (  -0.2000000  -0.4285714   0.2222222), wk =   0.0063492
        k(  108) = (  -0.2000000   0.4285714  -0.2222222), wk =   0.0063492
        k(  109) = (   0.2000000  -0.4285714  -0.2222222), wk =   0.0063492
        k(  110) = (  -0.2000000  -0.4285714   0.3333333), wk =   0.0063492
        k(  111) = (  -0.2000000   0.4285714  -0.3333333), wk =   0.0063492
        k(  112) = (   0.2000000  -0.4285714  -0.3333333), wk =   0.0063492
        k(  113) = (  -0.2000000  -0.4285714   0.4444444), wk =   0.0063492
        k(  114) = (  -0.2000000   0.4285714  -0.4444444), wk =   0.0063492
        k(  115) = (   0.2000000  -0.4285714  -0.4444444), wk =   0.0063492
        k(  116) = (  -0.4000000   0.0000000   0.1111111), wk =   0.0063492
        k(  117) = (  -0.4000000   0.0000000   0.2222222), wk =   0.0063492
        k(  118) = (  -0.4000000   0.0000000   0.3333333), wk =   0.0063492
        k(  119) = (  -0.4000000   0.0000000   0.4444444), wk =   0.0063492
        k(  120) = (  -0.4000000   0.1428571   0.0000000), wk =   0.0063492
        k(  121) = (  -0.4000000  -0.1428571   0.1111111), wk =   0.0063492
        k(  122) = (  -0.4000000   0.1428571  -0.1111111), wk =   0.0063492
        k(  123) = (   0.4000000  -0.1428571  -0.1111111), wk =   0.0063492
        k(  124) = (  -0.4000000  -0.1428571   0.2222222), wk =   0.0063492
        k(  125) = (  -0.4000000   0.1428571  -0.2222222), wk =   0.0063492
        k(  126) = (   0.4000000  -0.1428571  -0.2222222), wk =   0.0063492
        k(  127) = (  -0.4000000  -0.1428571   0.3333333), wk =   0.0063492
        k(  128) = (  -0.4000000   0.1428571  -0.3333333), wk =   0.0063492
        k(  129) = (   0.4000000  -0.1428571  -0.3333333), wk =   0.0063492
        k(  130) = (  -0.4000000  -0.1428571   0.4444444), wk =   0.0063492
        k(  131) = (  -0.4000000   0.1428571  -0.4444444), wk =   0.0063492
        k(  132) = (   0.4000000  -0.1428571  -0.4444444), wk =   0.0063492
        k(  133) = (  -0.4000000   0.2857143   0.0000000), wk =   0.0063492
        k(  134) = (  -0.4000000  -0.2857143   0.1111111), wk =   0.0063492
        k(  135) = (  -0.4000000   0.2857143  -0.1111111), wk =   0.0063492
        k(  136) = (   0.4000000  -0.2857143  -0.1111111), wk =   0.0063492
        k(  137) = (  -0.4000000  -0.2857143   0.2222222), wk =   0.0063492
        k(  138) = (  -0.4000000   0.2857143  -0.2222222), wk =   0.0063492
        k(  139) = (   0.4000000  -0.2857143  -0.2222222), wk =   0.0063492
        k(  140) = (  -0.4000000  -0.2857143   0.3333333), wk =   0.0063492
        k(  141) = (  -0.4000000   0.2857143  -0.3333333), wk =   0.0063492
        k(  142) = (   0.4000000  -0.2857143  -0.3333333), wk =   0.0063492
        k(  143) = (  -0.4000000  -0.2857143   0.4444444), wk =   0.0063492
        k(  144) = (  -0.4000000   0.2857143  -0.4444444), wk =   0.0063492
        k(  145) = (   0.4000000  -0.2857143  -0.4444444), wk =   0.0063492
        k(  146) = (  -0.4000000   0.4285714   0.0000000), wk =   0.0063492
        k(  147) = (  -0.4000000  -0.4285714   0.1111111), wk =   0.0063492
        k(  148) = (  -0.4000000   0.4285714  -0.1111111), wk =   0.0063492
        k(  149) = (   0.4000000  -0.4285714  -0.1111111), wk =   0.0063492
        k(  150) = (  -0.4000000  -0.4285714   0.2222222), wk =   0.0063492
        k(  151) = (  -0.4000000   0.4285714  -0.2222222), wk =   0.0063492
        k(  152) = (   0.4000000  -0.4285714  -0.2222222), wk =   0.0063492
        k(  153) = (  -0.4000000  -0.4285714   0.3333333), wk =   0.0063492
        k(  154) = (  -0.4000000   0.4285714  -0.3333333), wk =   0.0063492
        k(  155) = (   0.4000000  -0.4285714  -0.3333333), wk =   0.0063492
        k(  156) = (  -0.4000000  -0.4285714   0.4444444), wk =   0.0063492
        k(  157) = (  -0.4000000   0.4285714  -0.4444444), wk =   0.0063492
        k(  158) = (   0.4000000  -0.4285714  -0.4444444), wk =   0.0063492

     Dense  grid:  1499053 G-vectors     FFT dimensions: ( 216, 135, 108)

     Smooth grid:   337887 G-vectors     FFT dimensions: ( 135,  80,  64)

     Dynamical RAM for                 wfc:       2.29 MB

     Dynamical RAM for     wfc (w. buffer):     727.33 MB

     Dynamical RAM for           str. fact:       2.86 MB

     Dynamical RAM for           local pot:       0.00 MB

     Dynamical RAM for          nlocal pot:       5.64 MB

     Dynamical RAM for                qrad:      10.54 MB

     Dynamical RAM for          rho,v,vnew:       9.63 MB

     Dynamical RAM for               rhoin:       3.21 MB

     Dynamical RAM for            rho*nmix:      22.87 MB

     Dynamical RAM for           G-vectors:       2.76 MB

     Dynamical RAM for          h,s,v(r/c):       2.38 MB

     Dynamical RAM for          <psi|beta>:       0.49 MB

     Dynamical RAM for                 psi:       4.59 MB

     Dynamical RAM for                hpsi:       4.59 MB

     Dynamical RAM for                spsi:       4.59 MB

     Dynamical RAM for      wfcinit/wfcrot:       5.95 MB

     Dynamical RAM for           addusdens:     145.11 MB

     Dynamical RAM for          addusforce:     166.68 MB

     Dynamical RAM for         addusstress:     144.75 MB

     Estimated static dynamical RAM per process >     793.75 MB

     Estimated max dynamical RAM per process >     960.43 MB

     Estimated total dynamical RAM >      30.01 GB

     Check: negative core charge=   -0.000003
     Generating pointlists ...
     new r_m :   0.0762 (alat units)  1.5727 (a.u.) for type    1
     new r_m :   0.0837 (alat units)  1.7283 (a.u.) for type    2
     new r_m :   0.0609 (alat units)  1.2565 (a.u.) for type    3
     new r_m :   0.0609 (alat units)  1.2565 (a.u.) for type    4

     Initial potential from superposition of free atoms

     starting charge  188.99132, renormalised to  189.00000
     Starting wfcs are  137 randomized atomic wfcs
     Checking if some PAW data can be deallocated... 
       PAW data deallocated on   24 nodes for type:  1
       PAW data deallocated on   16 nodes for type:  3

     total cpu time spent up to now is     1356.4 secs

     Self-consistent Calculation

     iteration #  1     ecut=   100.00 Ry     beta= 0.40
     Davidson diagonalization with overlap
     ethr =  1.00E-02,  avg # of iterations =  2.7

     negative rho (up, down):  0.000E+00 1.183E-04

     total cpu time spent up to now is     4907.8 secs

     total energy              =   -2123.42233463 Ry
     estimated scf accuracy    <       7.22720892 Ry

     total magnetization       =    19.00 Bohr mag/cell
     absolute magnetization    =    19.00 Bohr mag/cell

     iteration #  2     ecut=   100.00 Ry     beta= 0.40
     Davidson diagonalization with overlap
     ethr =  3.82E-03,  avg # of iterations =  2.0

     negative rho (up, down):  0.000E+00 4.862E-05

     total cpu time spent up to now is     8370.1 secs

     total energy              =   -2120.78081093 Ry
     estimated scf accuracy    <      34.73987493 Ry

     total magnetization       =     7.16 Bohr mag/cell
     absolute magnetization    =     7.60 Bohr mag/cell

     iteration #  3     ecut=   100.00 Ry     beta= 0.40
     Davidson diagonalization with overlap
     ethr =  3.82E-03,  avg # of iterations =  2.0

     negative rho (up, down):  0.000E+00 9.957E-05

     total cpu time spent up to now is    11272.6 secs

     total energy              =   -2125.41043868 Ry
     estimated scf accuracy    <       4.98642439 Ry

     total magnetization       =    16.33 Bohr mag/cell
     absolute magnetization    =    16.48 Bohr mag/cell

     iteration #  4     ecut=   100.00 Ry     beta= 0.40
     Davidson diagonalization with overlap
     ethr =  2.64E-03,  avg # of iterations =  2.0

     negative rho (up, down):  0.000E+00 1.386E-04

     total cpu time spent up to now is    14127.0 secs

     total energy              =   -2125.45888394 Ry
     estimated scf accuracy    <       6.16683758 Ry

     total magnetization       =    16.81 Bohr mag/cell
     absolute magnetization    =    16.90 Bohr mag/cell

     iteration #  5     ecut=   100.00 Ry     beta= 0.40
     Davidson diagonalization with overlap
     ethr =  2.64E-03,  avg # of iterations =  1.0

     negative rho (up, down):  0.000E+00 1.476E-04

     total cpu time spent up to now is    16841.8 secs

     total energy              =   -2125.50263989 Ry
     estimated scf accuracy    <       9.35664584 Ry

     total magnetization       =    15.06 Bohr mag/cell
     absolute magnetization    =    15.46 Bohr mag/cell

     iteration #  6     ecut=   100.00 Ry     beta= 0.40
     Davidson diagonalization with overlap
     ethr =  2.64E-03,  avg # of iterations =  1.0

     negative rho (up, down):  0.000E+00 2.118E-04

     total cpu time spent up to now is    19559.0 secs

     total energy              =   -2125.79589075 Ry
     estimated scf accuracy    <       1.48133495 Ry

     total magnetization       =    19.00 Bohr mag/cell
     absolute magnetization    =    19.01 Bohr mag/cell

     iteration #  7     ecut=   100.00 Ry     beta= 0.40
     Davidson diagonalization with overlap
     ethr =  7.84E-04,  avg # of iterations =  1.5

     negative rho (up, down):  0.000E+00 3.651E-04

     total cpu time spent up to now is    22330.2 secs

     total energy              =   -2125.78287638 Ry
     estimated scf accuracy    <       1.49692577 Ry

     total magnetization       =    19.07 Bohr mag/cell
     absolute magnetization    =    19.08 Bohr mag/cell

     iteration #  8     ecut=   100.00 Ry     beta= 0.40
     Davidson diagonalization with overlap
     ethr =  7.84E-04,  avg # of iterations =  1.0

     negative rho (up, down):  0.000E+00 5.540E-04

     total cpu time spent up to now is    25052.1 secs

     total energy              =   -2125.73464599 Ry
     estimated scf accuracy    <       0.68361401 Ry

     total magnetization       =    19.00 Bohr mag/cell
     absolute magnetization    =    19.01 Bohr mag/cell

     iteration #  9     ecut=   100.00 Ry     beta= 0.40
     Davidson diagonalization with overlap
     ethr =  3.62E-04,  avg # of iterations =  1.2

     negative rho (up, down):  0.000E+00 7.126E-04

     total cpu time spent up to now is    27796.6 secs

     total energy              =   -2125.76334841 Ry
     estimated scf accuracy    <       0.30178890 Ry

     total magnetization       =    19.00 Bohr mag/cell
     absolute magnetization    =    19.01 Bohr mag/cell

     iteration # 10     ecut=   100.00 Ry     beta= 0.40
     Davidson diagonalization with overlap
     c_bands:  1 eigenvalues not converged
     ethr =  1.60E-04,  avg # of iterations =  4.4

     negative rho (up, down):  0.000E+00 7.295E-04

     total cpu time spent up to now is    30839.1 secs

     total energy              =   -2125.77870385 Ry
     estimated scf accuracy    <       0.29685839 Ry

     total magnetization       =    19.00 Bohr mag/cell
     absolute magnetization    =    19.02 Bohr mag/cell

     iteration # 11     ecut=   100.00 Ry     beta= 0.40
     Davidson diagonalization with overlap
     ethr =  1.57E-04,  avg # of iterations =  1.0

     negative rho (up, down):  0.000E+00 8.488E-04

     total cpu time spent up to now is    33557.7 secs

     total energy              =   -2125.77881265 Ry
     estimated scf accuracy    <       0.16776653 Ry

     total magnetization       =    19.00 Bohr mag/cell
     absolute magnetization    =    19.02 Bohr mag/cell

     iteration # 12     ecut=   100.00 Ry     beta= 0.40
     Davidson diagonalization with overlap
     c_bands:  1 eigenvalues not converged
     c_bands:  1 eigenvalues not converged
     ethr =  8.88E-05,  avg # of iterations =  3.0

     negative rho (up, down):  0.000E+00 7.963E-04

     total cpu time spent up to now is    36470.1 secs

     total energy              =   -2125.77759665 Ry
     estimated scf accuracy    <       0.11190813 Ry

     total magnetization       =    19.00 Bohr mag/cell
     absolute magnetization    =    19.03 Bohr mag/cell

     iteration # 13     ecut=   100.00 Ry     beta= 0.40
     Davidson diagonalization with overlap
     c_bands:  1 eigenvalues not converged
     c_bands:  1 eigenvalues not converged
     ethr =  5.92E-05,  avg # of iterations =  4.6

     negative rho (up, down):  0.000E+00 8.773E-04

     total cpu time spent up to now is    39530.4 secs

     total energy              =   -2125.77954145 Ry
     estimated scf accuracy    <       0.09351166 Ry

     total magnetization       =    19.00 Bohr mag/cell
     absolute magnetization    =    19.03 Bohr mag/cell

     iteration # 14     ecut=   100.00 Ry     beta= 0.40
     Davidson diagonalization with overlap
     c_bands:  1 eigenvalues not converged
     c_bands:  1 eigenvalues not converged
     c_bands:  3 eigenvalues not converged
     ethr =  4.95E-05,  avg # of iterations =  2.5

     negative rho (up, down):  0.000E+00 9.177E-04

     total cpu time spent up to now is    42386.3 secs

     total energy              =   -2125.78113495 Ry
     estimated scf accuracy    <       0.07834327 Ry

     total magnetization       =    19.00 Bohr mag/cell
     absolute magnetization    =    19.05 Bohr mag/cell

     iteration # 15     ecut=   100.00 Ry     beta= 0.40
     Davidson diagonalization with overlap
     c_bands:  1 eigenvalues not converged
     c_bands:  1 eigenvalues not converged
     c_bands:  1 eigenvalues not converged
     c_bands:  1 eigenvalues not converged
     c_bands:  1 eigenvalues not converged
     ethr =  4.15E-05,  avg # of iterations =  2.9

     negative rho (up, down):  0.000E+00 9.083E-04

     total cpu time spent up to now is    45283.2 secs

     total energy              =   -2125.78380004 Ry
     estimated scf accuracy    <       0.01639805 Ry

     total magnetization       =    19.00 Bohr mag/cell
     absolute magnetization    =    19.05 Bohr mag/cell

     iteration # 16     ecut=   100.00 Ry     beta= 0.40
     Davidson diagonalization with overlap
     c_bands:  1 eigenvalues not converged
     c_bands:  1 eigenvalues not converged
     c_bands:  3 eigenvalues not converged
     c_bands:  1 eigenvalues not converged
     c_bands:  1 eigenvalues not converged
     c_bands:  1 eigenvalues not converged
     c_bands:  1 eigenvalues not converged
     c_bands:  1 eigenvalues not converged
     c_bands:  1 eigenvalues not converged
     c_bands:  2 eigenvalues not converged
     c_bands:  1 eigenvalues not converged
     c_bands:  1 eigenvalues not converged
     c_bands:  1 eigenvalues not converged
     c_bands:  1 eigenvalues not converged
     c_bands:  1 eigenvalues not converged
     c_bands:  1 eigenvalues not converged
     c_bands:  1 eigenvalues not converged
     c_bands:  1 eigenvalues not converged
     c_bands:  1 eigenvalues not converged
     c_bands:  1 eigenvalues not converged
     c_bands:  1 eigenvalues not converged
     c_bands:  1 eigenvalues not converged
     c_bands:  1 eigenvalues not converged
     c_bands:  1 eigenvalues not converged
     c_bands:  1 eigenvalues not converged
     c_bands:  1 eigenvalues not converged
     c_bands:  1 eigenvalues not converged
     c_bands:  1 eigenvalues not converged
     c_bands:  1 eigenvalues not converged
     c_bands:  1 eigenvalues not converged
     c_bands:  2 eigenvalues not converged
     c_bands:  1 eigenvalues not converged
     c_bands:  1 eigenvalues not converged
     c_bands:  1 eigenvalues not converged
     c_bands:  1 eigenvalues not converged
     c_bands:  1 eigenvalues not converged
     c_bands:  1 eigenvalues not converged
     c_bands:  1 eigenvalues not converged
     c_bands:  1 eigenvalues not converged
     c_bands:  1 eigenvalues not converged
     c_bands:  1 eigenvalues not converged
     ethr =  8.68E-06,  avg # of iterations = 13.4

     negative rho (up, down):  0.000E+00 8.999E-04

     total cpu time spent up to now is    49326.7 secs

     total energy              =   -2125.78419588 Ry
     estimated scf accuracy    <       0.00310447 Ry

     total magnetization       =    19.00 Bohr mag/cell
     absolute magnetization    =    19.06 Bohr mag/cell

     iteration # 17     ecut=   100.00 Ry     beta= 0.40
     Davidson diagonalization with overlap
     c_bands:  1 eigenvalues not converged
     c_bands:  1 eigenvalues not converged
     c_bands:  1 eigenvalues not converged
     c_bands:  1 eigenvalues not converged
     c_bands:  1 eigenvalues not converged
     c_bands:  1 eigenvalues not converged
     c_bands:  1 eigenvalues not converged
     c_bands:  1 eigenvalues not converged
     c_bands:  1 eigenvalues not converged
     c_bands:  1 eigenvalues not converged
     c_bands:  1 eigenvalues not converged
     c_bands:  1 eigenvalues not converged
     c_bands:  1 eigenvalues not converged
     ethr =  1.64E-06,  avg # of iterations =  8.2

     negative rho (up, down):  0.000E+00 8.961E-04

     total cpu time spent up to now is    52964.2 secs

     total energy              =   -2125.78444266 Ry
     estimated scf accuracy    <       0.00229307 Ry

     total magnetization       =    19.00 Bohr mag/cell
     absolute magnetization    =    19.06 Bohr mag/cell

     iteration # 18     ecut=   100.00 Ry     beta= 0.40
     Davidson diagonalization with overlap
     ethr =  1.21E-06,  avg # of iterations =  1.1

     negative rho (up, down):  0.000E+00 8.911E-04

     total cpu time spent up to now is    55690.4 secs

     total energy              =   -2125.78449199 Ry
     estimated scf accuracy    <       0.00075589 Ry

     total magnetization       =    19.00 Bohr mag/cell
     absolute magnetization    =    19.06 Bohr mag/cell

     iteration # 19     ecut=   100.00 Ry     beta= 0.40
     Davidson diagonalization with overlap
     ethr =  4.00E-07,  avg # of iterations =  2.3

     negative rho (up, down):  0.000E+00 8.898E-04

     total cpu time spent up to now is    58567.6 secs

     total energy              =   -2125.78453690 Ry
     estimated scf accuracy    <       0.00015084 Ry

     total magnetization       =    19.00 Bohr mag/cell
     absolute magnetization    =    19.06 Bohr mag/cell

     iteration # 20     ecut=   100.00 Ry     beta= 0.40
     Davidson diagonalization with overlap
     ethr =  7.98E-08,  avg # of iterations =  4.5

     negative rho (up, down):  0.000E+00 8.892E-04

     total cpu time spent up to now is    62671.7 secs

     total energy              =   -2125.78458727 Ry
     estimated scf accuracy    <       0.00004704 Ry

     total magnetization       =    19.00 Bohr mag/cell
     absolute magnetization    =    19.06 Bohr mag/cell

     iteration # 21     ecut=   100.00 Ry     beta= 0.40
     Davidson diagonalization with overlap
     ethr =  2.49E-08,  avg # of iterations =  1.0

     negative rho (up, down):  0.000E+00 8.874E-04

     total cpu time spent up to now is    65390.9 secs

     total energy              =   -2125.78458896 Ry
     estimated scf accuracy    <       0.00002768 Ry

     total magnetization       =    19.00 Bohr mag/cell
     absolute magnetization    =    19.06 Bohr mag/cell

     iteration # 22     ecut=   100.00 Ry     beta= 0.40
     Davidson diagonalization with overlap
     ethr =  1.46E-08,  avg # of iterations =  1.0

     negative rho (up, down):  0.000E+00 8.851E-04

     total cpu time spent up to now is    68107.6 secs

     total energy              =   -2125.78459087 Ry
     estimated scf accuracy    <       0.00001290 Ry

     total magnetization       =    19.00 Bohr mag/cell
     absolute magnetization    =    19.06 Bohr mag/cell

     iteration # 23     ecut=   100.00 Ry     beta= 0.40
     Davidson diagonalization with overlap
     ethr =  6.83E-09,  avg # of iterations =  1.1

     negative rho (up, down):  0.000E+00 8.846E-04

     total cpu time spent up to now is    70830.7 secs

     total energy              =   -2125.78459172 Ry
     estimated scf accuracy    <       0.00000941 Ry

     total magnetization       =    19.00 Bohr mag/cell
     absolute magnetization    =    19.06 Bohr mag/cell

     iteration # 24     ecut=   100.00 Ry     beta= 0.40
     Davidson diagonalization with overlap
     ethr =  4.98E-09,  avg # of iterations =  1.0

     negative rho (up, down):  0.000E+00 8.852E-04

     total cpu time spent up to now is    73549.9 secs

     total energy              =   -2125.78459201 Ry
     estimated scf accuracy    <       0.00000378 Ry

     total magnetization       =    19.00 Bohr mag/cell
     absolute magnetization    =    19.06 Bohr mag/cell

     iteration # 25     ecut=   100.00 Ry     beta= 0.40
     Davidson diagonalization with overlap
     ethr =  2.00E-09,  avg # of iterations =  2.1

     negative rho (up, down):  0.000E+00 8.846E-04

     total cpu time spent up to now is    76429.9 secs

     total energy              =   -2125.78459237 Ry
     estimated scf accuracy    <       0.00000205 Ry

     total magnetization       =    19.00 Bohr mag/cell
     absolute magnetization    =    19.06 Bohr mag/cell

     iteration # 26     ecut=   100.00 Ry     beta= 0.40
     Davidson diagonalization with overlap
     ethr =  1.08E-09,  avg # of iterations =  1.7

     negative rho (up, down):  0.000E+00 8.850E-04

     total cpu time spent up to now is    79241.4 secs

     total energy              =   -2125.78459257 Ry
     estimated scf accuracy    <       0.00000123 Ry

     total magnetization       =    19.00 Bohr mag/cell
     absolute magnetization    =    19.06 Bohr mag/cell

     iteration # 27     ecut=   100.00 Ry     beta= 0.40
     Davidson diagonalization with overlap
     ethr =  6.51E-10,  avg # of iterations =  1.9

     negative rho (up, down):  0.000E+00 8.850E-04

     total cpu time spent up to now is    82119.3 secs

     total energy              =   -2125.78459272 Ry
     estimated scf accuracy    <       0.00000029 Ry

     total magnetization       =    19.00 Bohr mag/cell
     absolute magnetization    =    19.06 Bohr mag/cell

     iteration # 28     ecut=   100.00 Ry     beta= 0.40
     Davidson diagonalization with overlap
     ethr =  1.54E-10,  avg # of iterations =  3.0

     negative rho (up, down):  0.000E+00 8.852E-04

     total cpu time spent up to now is    85409.9 secs

     total energy              =   -2125.78459278 Ry
     estimated scf accuracy    <       0.00000006 Ry

     total magnetization       =    19.00 Bohr mag/cell
     absolute magnetization    =    19.06 Bohr mag/cell

     iteration # 29     ecut=   100.00 Ry     beta= 0.40
     Davidson diagonalization with overlap
     ethr =  2.91E-11,  avg # of iterations =  3.5

     negative rho (up, down):  0.000E+00 8.851E-04

     total cpu time spent up to now is    88912.4 secs

     total energy              =   -2125.78459282 Ry
     estimated scf accuracy    <       0.00000007 Ry

     total magnetization       =    19.00 Bohr mag/cell
     absolute magnetization    =    19.06 Bohr mag/cell

     iteration # 30     ecut=   100.00 Ry     beta= 0.40
     Davidson diagonalization with overlap
     ethr =  2.91E-11,  avg # of iterations =  2.0

     negative rho (up, down):  0.000E+00 8.852E-04

     total cpu time spent up to now is    91794.2 secs

     total energy              =   -2125.78459283 Ry
     estimated scf accuracy    <       0.00000010 Ry

     total magnetization       =    19.00 Bohr mag/cell
     absolute magnetization    =    19.06 Bohr mag/cell

     iteration # 31     ecut=   100.00 Ry     beta= 0.40
     Davidson diagonalization with overlap
     ethr =  2.91E-11,  avg # of iterations =  1.0

     negative rho (up, down):  0.000E+00 8.852E-04

     total cpu time spent up to now is    94511.7 secs

     total energy              =   -2125.78459284 Ry
     estimated scf accuracy    <       0.00000003 Ry

     total magnetization       =    19.00 Bohr mag/cell
     absolute magnetization    =    19.06 Bohr mag/cell

     iteration # 32     ecut=   100.00 Ry     beta= 0.40
     Davidson diagonalization with overlap
     ethr =  1.36E-11,  avg # of iterations =  1.3

     negative rho (up, down):  0.000E+00 8.851E-04

     total cpu time spent up to now is    97259.1 secs

     total energy              =   -2125.78459284 Ry
     estimated scf accuracy    <          2.9E-09 Ry

     total magnetization       =    19.00 Bohr mag/cell
     absolute magnetization    =    19.06 Bohr mag/cell

     iteration # 33     ecut=   100.00 Ry     beta= 0.40
     Davidson diagonalization with overlap
     ethr =  1.55E-12,  avg # of iterations =  4.0

     negative rho (up, down):  0.000E+00 8.851E-04

     total cpu time spent up to now is   101062.8 secs

     total energy              =   -2125.78459284 Ry
     estimated scf accuracy    <          2.1E-09 Ry

     total magnetization       =    19.00 Bohr mag/cell
     absolute magnetization    =    19.06 Bohr mag/cell

     iteration # 34     ecut=   100.00 Ry     beta= 0.40
     Davidson diagonalization with overlap
     ethr =  1.11E-12,  avg # of iterations =  2.0

     negative rho (up, down):  0.000E+00 8.851E-04

     total cpu time spent up to now is   103928.0 secs

     total energy              =   -2125.78459285 Ry
     estimated scf accuracy    <          1.9E-09 Ry

     total magnetization       =    19.00 Bohr mag/cell
     absolute magnetization    =    19.06 Bohr mag/cell

     iteration # 35     ecut=   100.00 Ry     beta= 0.40
     Davidson diagonalization with overlap
     ethr =  1.00E-12,  avg # of iterations =  1.8

     negative rho (up, down):  0.000E+00 8.851E-04

     total cpu time spent up to now is   106738.7 secs

     total energy              =   -2125.78459285 Ry
     estimated scf accuracy    <          2.4E-09 Ry

     total magnetization       =    19.00 Bohr mag/cell
     absolute magnetization    =    19.06 Bohr mag/cell

     iteration # 36     ecut=   100.00 Ry     beta= 0.40
     Davidson diagonalization with overlap
     ethr =  1.00E-12,  avg # of iterations =  1.0

     negative rho (up, down):  0.000E+00 8.851E-04

     total cpu time spent up to now is   109452.3 secs

     total energy              =   -2125.78459285 Ry
     estimated scf accuracy    <          1.2E-09 Ry

     total magnetization       =    19.00 Bohr mag/cell
     absolute magnetization    =    19.06 Bohr mag/cell

     iteration # 37     ecut=   100.00 Ry     beta= 0.40
     Davidson diagonalization with overlap
     ethr =  6.49E-13,  avg # of iterations =  1.0

     negative rho (up, down):  0.000E+00 8.851E-04

     total cpu time spent up to now is   112161.3 secs

     total energy              =   -2125.78459285 Ry
     estimated scf accuracy    <          3.9E-10 Ry

     total magnetization       =    19.00 Bohr mag/cell
     absolute magnetization    =    19.06 Bohr mag/cell

     iteration # 38     ecut=   100.00 Ry     beta= 0.40
     Davidson diagonalization with overlap
     ethr =  2.04E-13,  avg # of iterations =  1.2

     negative rho (up, down):  0.000E+00 8.851E-04

     Magnetic moment per site:
     atom:    1    charge:    7.8883    magn:    0.0006    constr:    0.0000
     atom:    2    charge:   13.0837    magn:    3.6749    constr:    0.0000
     atom:    3    charge:   13.0847    magn:    3.6686    constr:    0.0000
     atom:    4    charge:   13.0837    magn:    3.6749    constr:    0.0000
     atom:    5    charge:   13.0847    magn:    3.6686    constr:    0.0000
     atom:    6    charge:    0.9444    magn:    0.0086    constr:    0.0000
     atom:    7    charge:    0.9314    magn:    0.0095    constr:    0.0000
     atom:    8    charge:    0.9444    magn:    0.0086    constr:    0.0000
     atom:    9    charge:    0.9314    magn:    0.0095    constr:    0.0000
     atom:   10    charge:    4.4207    magn:    0.1555    constr:    0.0000
     atom:   11    charge:    4.4359    magn:    0.1202    constr:    0.0000
     atom:   12    charge:    4.4207    magn:    0.1555    constr:    0.0000
     atom:   13    charge:    4.4359    magn:    0.1202    constr:    0.0000
     atom:   14    charge:    4.4314    magn:    0.1260    constr:    0.0000
     atom:   15    charge:    4.4482    magn:    0.0926    constr:    0.0000
     atom:   16    charge:    4.4314    magn:    0.1260    constr:    0.0000
     atom:   17    charge:    4.4482    magn:    0.0926    constr:    0.0000
     atom:   18    charge:    4.4318    magn:    0.1473    constr:    0.0000
     atom:   19    charge:    4.4234    magn:    0.1442    constr:    0.0000
     atom:   20    charge:    4.4286    magn:    0.1330    constr:    0.0000
     atom:   21    charge:    4.4337    magn:    0.1594    constr:    0.0000
     atom:   22    charge:    4.4318    magn:    0.1473    constr:    0.0000
     atom:   23    charge:    4.4234    magn:    0.1442    constr:    0.0000
     atom:   24    charge:    4.4286    magn:    0.1330    constr:    0.0000
     atom:   25    charge:    4.4337    magn:    0.1594    constr:    0.0000

     total cpu time spent up to now is   114895.9 secs

     End of self-consistent calculation

 ------ SPIN UP ------------


          k = 0.0000 0.0000 0.0000 ( 42261 PWs)   bands (ev):

   -86.8532 -86.8532 -86.8212 -86.8212 -53.0301 -53.0301 -52.9062 -52.9062
   -52.8535 -52.8535 -52.7731 -52.7731 -52.7662 -52.7662 -52.6397 -52.6397
   -46.9272 -18.9746 -18.8857 -18.8544 -16.7478 -16.5849 -16.5520 -16.3857
   -14.7621 -14.6765 -14.6539 -14.5960 -14.5202 -14.5171 -14.3883 -14.3799
   -14.3349 -14.3310 -14.2451 -14.2266  -5.4938  -5.2342  -4.8747  -4.8191
    -3.1353  -3.0870  -2.7188  -2.6876  -2.4358  -2.2936  -2.2832  -2.1855
    -2.1842  -2.0964  -1.9985  -1.8975  -1.3171  -1.2633  -0.9966  -0.8924
    -0.8543  -0.7744  -0.7408  -0.6689  -0.5305  -0.5249  -0.2997  -0.2922
    -0.1888  -0.1341  -0.0136   0.0169   0.1418   0.2661   0.3941   0.4132
     0.4628   0.5426   0.6367   0.8069   0.8248   0.9277   1.0565   1.1194
     1.1574   1.2715   1.3137   1.3593   1.5051   1.5855   1.6644   1.7019
     1.7281   1.9647   2.0179   2.0641   2.2170   2.2389   2.3481   2.4337
     2.4734   2.4911   2.6280   2.6517   2.7032   2.7408   3.0304   3.0319
     6.4669   8.1606   8.7475   9.0513   9.5361  10.2599  10.3707  10.7491
    10.8198  10.8402

     occupation numbers 
     1.0000   1.0000   1.0000   1.0000   1.0000   1.0000   1.0000   1.0000
     1.0000   1.0000   1.0000   1.0000   1.0000   1.0000   1.0000   1.0000
     1.0000   1.0000   1.0000   1.0000   1.0000   1.0000   1.0000   1.0000
     1.0000   1.0000   1.0000   1.0000   1.0000   1.0000   1.0000   1.0000
     1.0000   1.0000   1.0000   1.0000   1.0000   1.0000   1.0000   1.0000
     1.0000   1.0000   1.0000   1.0000   1.0000   1.0000   1.0000   1.0000
     1.0000   1.0000   1.0000   1.0000   1.0000   1.0000   1.0000   1.0000
     1.0000   1.0000   1.0000   1.0000   1.0000   1.0000   1.0000   1.0000
     1.0000   1.0000   1.0000   1.0000   1.0000   1.0000   1.0000   1.0000
     1.0000   1.0000   1.0000   1.0000   1.0000   1.0000   1.0000   1.0000
     1.0000   1.0000   1.0000   1.0000   1.0000   1.0000   1.0000   1.0000
     1.0000   1.0000   1.0000   1.0000   1.0000   1.0000   1.0000   1.0000
     1.0000   1.0000   1.0000   1.0000   1.0000   1.0000   1.0000   1.0000
     0.0000   0.0000   0.0000   0.0000   0.0000   0.0000   0.0000   0.0000
     0.0000   0.0000

          k = 0.0000 0.0000 0.2337 ( 42279 PWs)   bands (ev):

   -86.8532 -86.8532 -86.8212 -86.8212 -53.0301 -53.0301 -52.9062 -52.9062
   -52.8535 -52.8535 -52.7731 -52.7731 -52.7662 -52.7662 -52.6397 -52.6397
   -46.9272 -18.9746 -18.8857 -18.8545 -16.7363 -16.5812 -16.5437 -16.3875
   -14.7699 -14.6944 -14.6417 -14.5954 -14.5233 -14.5136 -14.4044 -14.3835
   -14.3331 -14.3327 -14.2529 -14.2267  -5.4696  -5.2235  -4.8882  -4.7935
    -3.1187  -3.0742  -2.7442  -2.6532  -2.4352  -2.2963  -2.2545  -2.2175
    -2.1352  -2.1077  -2.0112  -1.8919  -1.3043  -1.2585  -0.9932  -0.8935
    -0.8591  -0.7925  -0.7225  -0.6729  -0.5408  -0.5051  -0.3331  -0.2882
    -0.2132  -0.1283  -0.0217   0.0239   0.1369   0.3228   0.3282   0.4439
     0.4873   0.5495   0.6235   0.7285   0.7977   0.9513   1.0589   1.1186
     1.1502   1.2639   1.3164   1.3578   1.4918   1.5346   1.6653   1.6924
     1.7476   1.9374   2.0241   2.0782   2.2094   2.2243   2.3617   2.3904
     2.4595   2.5195   2.6138   2.6554   2.6961   2.7497   3.0273   3.0371
     6.6033   8.2254   8.7788   9.0773   9.5702  10.2302  10.3357  10.6918
    10.7843  10.8606

     occupation numbers 
     1.0000   1.0000   1.0000   1.0000   1.0000   1.0000   1.0000   1.0000
     1.0000   1.0000   1.0000   1.0000   1.0000   1.0000   1.0000   1.0000
     1.0000   1.0000   1.0000   1.0000   1.0000   1.0000   1.0000   1.0000
     1.0000   1.0000   1.0000   1.0000   1.0000   1.0000   1.0000   1.0000
     1.0000   1.0000   1.0000   1.0000   1.0000   1.0000   1.0000   1.0000
     1.0000   1.0000   1.0000   1.0000   1.0000   1.0000   1.0000   1.0000
     1.0000   1.0000   1.0000   1.0000   1.0000   1.0000   1.0000   1.0000
     1.0000   1.0000   1.0000   1.0000   1.0000   1.0000   1.0000   1.0000
     1.0000   1.0000   1.0000   1.0000   1.0000   1.0000   1.0000   1.0000
     1.0000   1.0000   1.0000   1.0000   1.0000   1.0000   1.0000   1.0000
     1.0000   1.0000   1.0000   1.0000   1.0000   1.0000   1.0000   1.0000
     1.0000   1.0000   1.0000   1.0000   1.0000   1.0000   1.0000   1.0000
     1.0000   1.0000   1.0000   1.0000   1.0000   1.0000   1.0000   1.0000
     0.0000   0.0000   0.0000   0.0000   0.0000   0.0000   0.0000   0.0000
     0.0000   0.0000

          k = 0.0000 0.0000 0.4675 ( 42247 PWs)   bands (ev):

   -86.8532 -86.8532 -86.8212 -86.8212 -53.0301 -53.0301 -52.9062 -52.9062
   -52.8535 -52.8535 -52.7731 -52.7731 -52.7662 -52.7662 -52.6397 -52.6397
   -46.9272 -18.9746 -18.8856 -18.8547 -16.7051 -16.5705 -16.5229 -16.3945
   -14.7910 -14.7247 -14.6256 -14.5949 -14.5292 -14.5106 -14.4240 -14.3986
   -14.3382 -14.3355 -14.2700 -14.2305  -5.4063  -5.1958  -4.8953  -4.7605
    -3.0935  -3.0257  -2.7396  -2.6313  -2.4338  -2.2940  -2.2543  -2.1756
    -2.1279  -2.0866  -2.0192  -1.9009  -1.2864  -1.2305  -0.9685  -0.8975
    -0.8512  -0.8109  -0.7141  -0.6578  -0.5449  -0.4862  -0.3823  -0.3074
    -0.2193  -0.1366  -0.0425   0.0327   0.1445   0.2650   0.3885   0.4000
     0.5079   0.5111   0.6173   0.6612   0.7151   0.9786   1.0580   1.0797
     1.1344   1.2538   1.3003   1.3649   1.3959   1.4554   1.6703   1.7159
     1.7850   1.8945   1.9982   2.0852   2.1755   2.2592   2.3623   2.3842
     2.4564   2.5074   2.5768   2.6591   2.7011   2.7659   3.0175   3.0415
     6.9660   8.3923   8.8372   9.1471   9.6597  10.0659  10.2971  10.5503
    10.7119  10.8816

     occupation numbers 
     1.0000   1.0000   1.0000   1.0000   1.0000   1.0000   1.0000   1.0000
     1.0000   1.0000   1.0000   1.0000   1.0000   1.0000   1.0000   1.0000
     1.0000   1.0000   1.0000   1.0000   1.0000   1.0000   1.0000   1.0000
     1.0000   1.0000   1.0000   1.0000   1.0000   1.0000   1.0000   1.0000
     1.0000   1.0000   1.0000   1.0000   1.0000   1.0000   1.0000   1.0000
     1.0000   1.0000   1.0000   1.0000   1.0000   1.0000   1.0000   1.0000
     1.0000   1.0000   1.0000   1.0000   1.0000   1.0000   1.0000   1.0000
     1.0000   1.0000   1.0000   1.0000   1.0000   1.0000   1.0000   1.0000
     1.0000   1.0000   1.0000   1.0000   1.0000   1.0000   1.0000   1.0000
     1.0000   1.0000   1.0000   1.0000   1.0000   1.0000   1.0000   1.0000
     1.0000   1.0000   1.0000   1.0000   1.0000   1.0000   1.0000   1.0000
     1.0000   1.0000   1.0000   1.0000   1.0000   1.0000   1.0000   1.0000
     1.0000   1.0000   1.0000   1.0000   1.0000   1.0000   1.0000   1.0000
     0.0000   0.0000   0.0000   0.0000   0.0000   0.0000   0.0000   0.0000
     0.0000   0.0000

          k = 0.0000 0.0000 0.7012 ( 42239 PWs)   bands (ev):

   -86.8532 -86.8532 -86.8212 -86.8212 -53.0301 -53.0301 -52.9063 -52.9062
   -52.8535 -52.8535 -52.7731 -52.7731 -52.7662 -52.7662 -52.6397 -52.6397
   -46.9272 -18.9746 -18.8856 -18.8550 -16.6653 -16.5562 -16.4977 -16.4092
   -14.8163 -14.7555 -14.6109 -14.5945 -14.5365 -14.5201 -14.4295 -14.4082
   -14.3458 -14.3448 -14.2853 -14.2414  -5.3305  -5.1627  -4.8838  -4.7515
    -3.0708  -2.9650  -2.6947  -2.6316  -2.4382  -2.2964  -2.2659  -2.1793
    -2.0862  -2.0535  -1.9960  -1.9349  -1.2725  -1.1920  -0.9234  -0.8506
    -0.8326  -0.8099  -0.6878  -0.6588  -0.5133  -0.4779  -0.3918  -0.3454
    -0.2158  -0.1524  -0.0775   0.0256   0.1024   0.1874   0.2960   0.3682
     0.4254   0.5318   0.5616   0.6706   0.7431   0.9450   0.9591   1.0428
     1.1566   1.2262   1.2472   1.3013   1.3950   1.4799   1.6410   1.7058
     1.8391   1.8720   1.9692   2.0598   2.1933   2.2936   2.3924   2.4217
     2.4588   2.4665   2.5372   2.6159   2.7395   2.7802   2.9986   3.0422
     7.4567   8.5441   8.8894   9.2350   9.5957   9.9633  10.2941  10.4128
    10.6087  10.8843

     occupation numbers 
     1.0000   1.0000   1.0000   1.0000   1.0000   1.0000   1.0000   1.0000
     1.0000   1.0000   1.0000   1.0000   1.0000   1.0000   1.0000   1.0000
     1.0000   1.0000   1.0000   1.0000   1.0000   1.0000   1.0000   1.0000
     1.0000   1.0000   1.0000   1.0000   1.0000   1.0000   1.0000   1.0000
     1.0000   1.0000   1.0000   1.0000   1.0000   1.0000   1.0000   1.0000
     1.0000   1.0000   1.0000   1.0000   1.0000   1.0000   1.0000   1.0000
     1.0000   1.0000   1.0000   1.0000   1.0000   1.0000   1.0000   1.0000
     1.0000   1.0000   1.0000   1.0000   1.0000   1.0000   1.0000   1.0000
     1.0000   1.0000   1.0000   1.0000   1.0000   1.0000   1.0000   1.0000
     1.0000   1.0000   1.0000   1.0000   1.0000   1.0000   1.0000   1.0000
     1.0000   1.0000   1.0000   1.0000   1.0000   1.0000   1.0000   1.0000
     1.0000   1.0000   1.0000   1.0000   1.0000   1.0000   1.0000   1.0000
     1.0000   1.0000   1.0000   1.0000   1.0000   1.0000   1.0000   1.0000
     0.0000   0.0000   0.0000   0.0000   0.0000   0.0000   0.0000   0.0000
     0.0000   0.0000

          k = 0.0000 0.0000 0.9349 ( 42234 PWs)   bands (ev):

   -86.8532 -86.8532 -86.8212 -86.8212 -53.0301 -53.0301 -52.9063 -52.9062
   -52.8535 -52.8535 -52.7731 -52.7731 -52.7662 -52.7662 -52.6397 -52.6397
   -46.9272 -18.9746 -18.8856 -18.8551 -16.6360 -16.5444 -16.4774 -16.4279
   -14.8330 -14.7759 -14.6006 -14.5934 -14.5446 -14.5302 -14.4423 -14.3908
   -14.3551 -14.3530 -14.2927 -14.2534  -5.2786  -5.1399  -4.8621  -4.7656
    -3.0512  -2.9294  -2.6488  -2.6362  -2.4486  -2.3075  -2.2643  -2.1992
    -2.0698  -2.0202  -1.9769  -1.9555  -1.2627  -1.1640  -0.9148  -0.8291
    -0.7811  -0.7669  -0.6418  -0.5919  -0.5099  -0.4709  -0.3768  -0.3383
    -0.2453  -0.2048  -0.1209  -0.0453   0.0240   0.0914   0.2348   0.3701
     0.4249   0.5089   0.5290   0.6933   0.7897   0.8453   0.9007   1.0123
     1.1549   1.2002   1.2458   1.3253   1.3819   1.5297   1.5864   1.6697
     1.8696   1.8839   1.9636   2.0331   2.2572   2.3171   2.3970   2.4304
     2.4604   2.4699   2.4846   2.5932   2.7574   2.7925   2.9827   3.0409
     7.9738   8.4002   9.0492   9.2552   9.3788   9.9921  10.3179  10.3657
    10.5551  10.8421

     occupation numbers 
     1.0000   1.0000   1.0000   1.0000   1.0000   1.0000   1.0000   1.0000
     1.0000   1.0000   1.0000   1.0000   1.0000   1.0000   1.0000   1.0000
     1.0000   1.0000   1.0000   1.0000   1.0000   1.0000   1.0000   1.0000
     1.0000   1.0000   1.0000   1.0000   1.0000   1.0000   1.0000   1.0000
     1.0000   1.0000   1.0000   1.0000   1.0000   1.0000   1.0000   1.0000
     1.0000   1.0000   1.0000   1.0000   1.0000   1.0000   1.0000   1.0000
     1.0000   1.0000   1.0000   1.0000   1.0000   1.0000   1.0000   1.0000
     1.0000   1.0000   1.0000   1.0000   1.0000   1.0000   1.0000   1.0000
     1.0000   1.0000   1.0000   1.0000   1.0000   1.0000   1.0000   1.0000
     1.0000   1.0000   1.0000   1.0000   1.0000   1.0000   1.0000   1.0000
     1.0000   1.0000   1.0000   1.0000   1.0000   1.0000   1.0000   1.0000
     1.0000   1.0000   1.0000   1.0000   1.0000   1.0000   1.0000   1.0000
     1.0000   1.0000   1.0000   1.0000   1.0000   1.0000   1.0000   1.0000
     0.0000   0.0000   0.0000   0.0000   0.0000   0.0000   0.0000   0.0000
     0.0000   0.0000

          k = 0.0000 0.2391 0.0000 ( 42299 PWs)   bands (ev):

   -86.8532 -86.8532 -86.8212 -86.8212 -53.0301 -53.0301 -52.9062 -52.9062
   -52.8535 -52.8535 -52.7731 -52.7731 -52.7662 -52.7662 -52.6397 -52.6397
   -46.9272 -18.9748 -18.8861 -18.8544 -16.7346 -16.5819 -16.5501 -16.3959
   -14.7773 -14.6665 -14.6600 -14.5954 -14.5586 -14.4921 -14.4001 -14.3672
   -14.3357 -14.3241 -14.2454 -14.2236  -5.4649  -5.2083  -4.8844  -4.8191
    -3.1133  -3.0549  -2.7215  -2.6724  -2.4438  -2.3267  -2.2671  -2.1798
    -2.1579  -2.1028  -2.0023  -1.8838  -1.3238  -1.2777  -1.0195  -0.9825
    -0.8411  -0.7574  -0.7300  -0.6974  -0.5613  -0.5006  -0.2948  -0.2577
    -0.1940  -0.1335  -0.0321   0.0079   0.1489   0.2750   0.3213   0.4100
     0.4451   0.5685   0.6005   0.7768   0.8413   0.9316   0.9496   1.1379
     1.1545   1.2637   1.3423   1.3676   1.5397   1.5967   1.6604   1.7330
     1.7421   1.8725   2.0193   2.0702   2.1976   2.2229   2.3181   2.4007
     2.4894   2.5200   2.6252   2.6998   2.7354   2.7917   3.0263   3.0515
     6.6157   8.2363   8.8276   8.9644   9.5177  10.1926  10.4012  10.7162
    10.7473  10.8776

     occupation numbers 
     1.0000   1.0000   1.0000   1.0000   1.0000   1.0000   1.0000   1.0000
     1.0000   1.0000   1.0000   1.0000   1.0000   1.0000   1.0000   1.0000
     1.0000   1.0000   1.0000   1.0000   1.0000   1.0000   1.0000   1.0000
     1.0000   1.0000   1.0000   1.0000   1.0000   1.0000   1.0000   1.0000
     1.0000   1.0000   1.0000   1.0000   1.0000   1.0000   1.0000   1.0000
     1.0000   1.0000   1.0000   1.0000   1.0000   1.0000   1.0000   1.0000
     1.0000   1.0000   1.0000   1.0000   1.0000   1.0000   1.0000   1.0000
     1.0000   1.0000   1.0000   1.0000   1.0000   1.0000   1.0000   1.0000
     1.0000   1.0000   1.0000   1.0000   1.0000   1.0000   1.0000   1.0000
     1.0000   1.0000   1.0000   1.0000   1.0000   1.0000   1.0000   1.0000
     1.0000   1.0000   1.0000   1.0000   1.0000   1.0000   1.0000   1.0000
     1.0000   1.0000   1.0000   1.0000   1.0000   1.0000   1.0000   1.0000
     1.0000   1.0000   1.0000   1.0000   1.0000   1.0000   1.0000   1.0000
     0.0000   0.0000   0.0000   0.0000   0.0000   0.0000   0.0000   0.0000
     0.0000   0.0000

          k = 0.0000 0.2391 0.2337 ( 42264 PWs)   bands (ev):

   -86.8532 -86.8532 -86.8212 -86.8212 -53.0301 -53.0301 -52.9062 -52.9062
   -52.8535 -52.8535 -52.7731 -52.7731 -52.7662 -52.7662 -52.6397 -52.6397
   -46.9272 -18.9748 -18.8861 -18.8545 -16.7235 -16.5723 -16.5460 -16.3983
   -14.7838 -14.6918 -14.6440 -14.5910 -14.5611 -14.5000 -14.4010 -14.3808
   -14.3349 -14.3248 -14.2510 -14.2223  -5.4450  -5.2021  -4.8936  -4.7843
    -3.0981  -3.0434  -2.7564  -2.6282  -2.4353  -2.3182  -2.2487  -2.2127
    -2.1475  -2.0998  -2.0178  -1.8616  -1.2978  -1.2792  -0.9971  -0.9659
    -0.8400  -0.7809  -0.7021  -0.6814  -0.5619  -0.5186  -0.3537  -0.2800
    -0.2474  -0.1311  -0.0589  -0.0012   0.1623   0.2993   0.3118   0.3867
     0.4813   0.5412   0.6203   0.7696   0.8586   0.9272   1.0118   1.1111
     1.1451   1.2647   1.3012   1.3661   1.4917   1.5590   1.6627   1.7111
     1.7668   1.8322   2.0307   2.1037   2.1938   2.2262   2.3055   2.3859
     2.4990   2.5255   2.6276   2.6707   2.7461   2.7822   3.0309   3.0566
     6.7336   8.2993   8.8531   9.0059   9.5952  10.1348  10.3636  10.6874
    10.8012  10.8216

     occupation numbers 
     1.0000   1.0000   1.0000   1.0000   1.0000   1.0000   1.0000   1.0000
     1.0000   1.0000   1.0000   1.0000   1.0000   1.0000   1.0000   1.0000
     1.0000   1.0000   1.0000   1.0000   1.0000   1.0000   1.0000   1.0000
     1.0000   1.0000   1.0000   1.0000   1.0000   1.0000   1.0000   1.0000
     1.0000   1.0000   1.0000   1.0000   1.0000   1.0000   1.0000   1.0000
     1.0000   1.0000   1.0000   1.0000   1.0000   1.0000   1.0000   1.0000
     1.0000   1.0000   1.0000   1.0000   1.0000   1.0000   1.0000   1.0000
     1.0000   1.0000   1.0000   1.0000   1.0000   1.0000   1.0000   1.0000
     1.0000   1.0000   1.0000   1.0000   1.0000   1.0000   1.0000   1.0000
     1.0000   1.0000   1.0000   1.0000   1.0000   1.0000   1.0000   1.0000
     1.0000   1.0000   1.0000   1.0000   1.0000   1.0000   1.0000   1.0000
     1.0000   1.0000   1.0000   1.0000   1.0000   1.0000   1.0000   1.0000
     1.0000   1.0000   1.0000   1.0000   1.0000   1.0000   1.0000   1.0000
     0.0000   0.0000   0.0000   0.0000   0.0000   0.0000   0.0000   0.0000
     0.0000   0.0000

          k = 0.0000 0.2391 0.4675 ( 42241 PWs)   bands (ev):

   -86.8532 -86.8532 -86.8212 -86.8212 -53.0301 -53.0301 -52.9062 -52.9062
   -52.8535 -52.8535 -52.7731 -52.7731 -52.7662 -52.7662 -52.6397 -52.6397
   -46.9272 -18.9748 -18.8861 -18.8548 -16.6934 -16.5575 -16.5278 -16.4049
   -14.8021 -14.7199 -14.6344 -14.5958 -14.5534 -14.5113 -14.4247 -14.3867
   -14.3381 -14.3285 -14.2662 -14.2273  -5.3856  -5.1779  -4.8937  -4.7435
    -3.0711  -3.0097  -2.7439  -2.6110  -2.4304  -2.3142  -2.2431  -2.1932
    -2.1197  -2.0915  -2.0224  -1.8681  -1.2976  -1.2421  -0.9567  -0.9336
    -0.8382  -0.8074  -0.6836  -0.6585  -0.5598  -0.5255  -0.4164  -0.3089
    -0.2719  -0.1545  -0.0895   0.0136   0.1517   0.2409   0.2942   0.4019
     0.4896   0.5793   0.6149   0.7350   0.7471   0.9882   1.0231   1.0728
     1.1417   1.2145   1.2789   1.3396   1.4101   1.4786   1.6585   1.7469
     1.7553   1.8184   2.0332   2.1086   2.1536   2.2785   2.2930   2.4065
     2.4658   2.5331   2.6259   2.6650   2.7248   2.7884   3.0235   3.0662
     7.0693   8.4698   8.9016   9.1031   9.7093  10.1131  10.1882  10.5467
    10.7082  10.8577

     occupation numbers 
     1.0000   1.0000   1.0000   1.0000   1.0000   1.0000   1.0000   1.0000
     1.0000   1.0000   1.0000   1.0000   1.0000   1.0000   1.0000   1.0000
     1.0000   1.0000   1.0000   1.0000   1.0000   1.0000   1.0000   1.0000
     1.0000   1.0000   1.0000   1.0000   1.0000   1.0000   1.0000   1.0000
     1.0000   1.0000   1.0000   1.0000   1.0000   1.0000   1.0000   1.0000
     1.0000   1.0000   1.0000   1.0000   1.0000   1.0000   1.0000   1.0000
     1.0000   1.0000   1.0000   1.0000   1.0000   1.0000   1.0000   1.0000
     1.0000   1.0000   1.0000   1.0000   1.0000   1.0000   1.0000   1.0000
     1.0000   1.0000   1.0000   1.0000   1.0000   1.0000   1.0000   1.0000
     1.0000   1.0000   1.0000   1.0000   1.0000   1.0000   1.0000   1.0000
     1.0000   1.0000   1.0000   1.0000   1.0000   1.0000   1.0000   1.0000
     1.0000   1.0000   1.0000   1.0000   1.0000   1.0000   1.0000   1.0000
     1.0000   1.0000   1.0000   1.0000   1.0000   1.0000   1.0000   1.0000
     0.0000   0.0000   0.0000   0.0000   0.0000   0.0000   0.0000   0.0000
     0.0000   0.0000

          k = 0.0000 0.2391 0.7012 ( 42219 PWs)   bands (ev):

   -86.8532 -86.8532 -86.8212 -86.8212 -53.0301 -53.0301 -52.9063 -52.9062
   -52.8535 -52.8535 -52.7731 -52.7731 -52.7662 -52.7662 -52.6397 -52.6397
   -46.9272 -18.9748 -18.8860 -18.8550 -16.6552 -16.5419 -16.5033 -16.4184
   -14.8248 -14.7491 -14.6262 -14.5999 -14.5505 -14.5224 -14.4397 -14.3904
   -14.3467 -14.3343 -14.2811 -14.2399  -5.3111  -5.1457  -4.8798  -4.7281
    -3.0538  -2.9567  -2.6936  -2.6133  -2.4351  -2.3182  -2.2583  -2.1865
    -2.0737  -2.0527  -2.0042  -1.9089  -1.2965  -1.2064  -0.9180  -0.8768
    -0.8234  -0.7769  -0.6877  -0.6685  -0.5306  -0.5016  -0.4324  -0.3514
    -0.2383  -0.1880  -0.1184   0.0160   0.0983   0.1672   0.2518   0.3964
     0.4030   0.5579   0.5978   0.7054   0.7553   0.8937   0.9601   1.0305
     1.1627   1.2122   1.2364   1.3080   1.4087   1.4608   1.6606   1.6867
     1.7668   1.8764   1.9727   2.1080   2.1301   2.3205   2.3326   2.4294
     2.4705   2.5262   2.5785   2.6551   2.7392   2.7958   3.0014   3.0740
     7.5317   8.6591   8.9160   9.2238   9.6549  10.0003  10.2199  10.4038
    10.5838  10.8671

     occupation numbers 
     1.0000   1.0000   1.0000   1.0000   1.0000   1.0000   1.0000   1.0000
     1.0000   1.0000   1.0000   1.0000   1.0000   1.0000   1.0000   1.0000
     1.0000   1.0000   1.0000   1.0000   1.0000   1.0000   1.0000   1.0000
     1.0000   1.0000   1.0000   1.0000   1.0000   1.0000   1.0000   1.0000
     1.0000   1.0000   1.0000   1.0000   1.0000   1.0000   1.0000   1.0000
     1.0000   1.0000   1.0000   1.0000   1.0000   1.0000   1.0000   1.0000
     1.0000   1.0000   1.0000   1.0000   1.0000   1.0000   1.0000   1.0000
     1.0000   1.0000   1.0000   1.0000   1.0000   1.0000   1.0000   1.0000
     1.0000   1.0000   1.0000   1.0000   1.0000   1.0000   1.0000   1.0000
     1.0000   1.0000   1.0000   1.0000   1.0000   1.0000   1.0000   1.0000
     1.0000   1.0000   1.0000   1.0000   1.0000   1.0000   1.0000   1.0000
     1.0000   1.0000   1.0000   1.0000   1.0000   1.0000   1.0000   1.0000
     1.0000   1.0000   1.0000   1.0000   1.0000   1.0000   1.0000   1.0000
     0.0000   0.0000   0.0000   0.0000   0.0000   0.0000   0.0000   0.0000
     0.0000   0.0000

          k = 0.0000 0.2391 0.9349 ( 42236 PWs)   bands (ev):

   -86.8532 -86.8532 -86.8212 -86.8212 -53.0301 -53.0301 -52.9063 -52.9062
   -52.8535 -52.8535 -52.7731 -52.7731 -52.7662 -52.7662 -52.6397 -52.6397
   -46.9272 -18.9747 -18.8859 -18.8552 -16.6262 -16.5338 -16.4824 -16.4338
   -14.8406 -14.7696 -14.6171 -14.5980 -14.5551 -14.5322 -14.4440 -14.3851
   -14.3569 -14.3409 -14.2892 -14.2526  -5.2550  -5.1192  -4.8614  -4.7457
    -3.0348  -2.9216  -2.6507  -2.6166  -2.4479  -2.3205  -2.2701  -2.1966
[...]
     atom    3 type  1   force =    -0.05807274   -0.17784362    0.12473195
     atom    4 type  1   force =    -0.07305135    0.09751982    0.19478199
     atom    5 type  1   force =     0.05807207    0.17786079   -0.12471293
     atom    6 type  4   force =    -0.01032084    0.05230863    0.03327429
     atom    7 type  4   force =    -0.03035804    0.01606969   -0.06605538
     atom    8 type  4   force =     0.01030700   -0.05231282   -0.03329731
     atom    9 type  4   force =     0.03035679   -0.01606829    0.06606975
     atom   10 type  3   force =    -0.51434286   -0.28827195   -1.06153862
     atom   11 type  3   force =    -0.07476577    0.24484489   -1.49916749
     atom   12 type  3   force =     0.51428406    0.28824484    1.06150196
     atom   13 type  3   force =     0.07475002   -0.24483867    1.49918295
     atom   14 type  3   force =     1.41863308   -0.24086621   -0.68083710
     atom   15 type  3   force =    -1.37593045    0.27346243   -0.17671718
     atom   16 type  3   force =    -1.41863420    0.24086705    0.68081886
     atom   17 type  3   force =     1.37591638   -0.27345421    0.17677320
     atom   18 type  3   force =    -0.03240265   -1.40631346    0.81494735
     atom   19 type  3   force =     0.63520718    0.67673682    0.92486436
     atom   20 type  3   force =     0.02756376   -1.64182557   -0.98690591
     atom   21 type  3   force =    -0.06779791    1.02042564   -0.57193281
     atom   22 type  3   force =     0.03241383    1.40632935   -0.81495526
     atom   23 type  3   force =    -0.63519050   -0.67672513   -0.92486919
     atom   24 type  3   force =    -0.02756384    1.64180421    0.98693322
     atom   25 type  3   force =     0.06780221   -1.02043500    0.57191995
     The ionic contribution  to forces
     atom    1 type  2   force =     0.00051409    0.00040940    0.00017198
     atom    2 type  1   force =     8.17269472    4.91667737   -1.83729727
     atom    3 type  1   force =     4.25033859   -8.87451826   -2.45992205
     atom    4 type  1   force =    -8.17306715   -4.91662687    1.83716093
     atom    5 type  1   force =    -4.25071607    8.87421099    2.45998991
     atom    6 type  4   force =    -1.46527108    1.96006859   -1.93522293
     atom    7 type  4   force =     3.03689855   -0.87235385    1.07467621
     atom    8 type  4   force =     1.46533107   -1.96005302    1.93507063
     atom    9 type  4   force =    -3.03700379    0.87234167   -1.07457273
     atom   10 type  3   force =    -0.32346351    6.11465927    0.07723588
     atom   11 type  3   force =     6.67172088   -3.67186822    2.09012014
     atom   12 type  3   force =     0.32373462   -6.11445613   -0.07689361
     atom   13 type  3   force =    -6.67175866    3.67182872   -2.09028433
     atom   14 type  3   force =     0.30536832    1.34682367    6.90072623
     atom   15 type  3   force =     0.30862149   -2.84942677    4.56911938
     atom   16 type  3   force =    -0.30553962   -1.34682035   -6.90069512
     atom   17 type  3   force =    -0.30821870    2.84912158   -4.56945245
     atom   18 type  3   force =    -5.38829517    7.83632635    0.50147684
     atom   19 type  3   force =     2.21522469   -1.19414101   -3.12159865
     atom   20 type  3   force =     3.90402052    5.83301986    8.06625162
     atom   21 type  3   force =    -8.28278857   -0.71181046   -0.32365963
     atom   22 type  3   force =     5.38836415   -7.83633895   -0.50143939
     atom   23 type  3   force =    -2.21542682    1.19410274    3.12159345
     atom   24 type  3   force =    -3.90392942   -5.83302190   -8.06623567
     atom   25 type  3   force =     8.28264688    0.71184560    0.32368064
     The local contribution  to forces
     atom    1 type  2   force =    -0.00050966   -0.00041414   -0.00018360
     atom    2 type  1   force =    -8.25068243   -4.81511103    2.04836446
     atom    3 type  1   force =    -4.18875815    9.07501862    2.32324444
     atom    4 type  1   force =     8.25105413    4.81506612   -2.04819728
     atom    5 type  1   force =     4.18913353   -9.07473565   -2.32333743
     atom    6 type  4   force =     1.48163312   -2.01591069    1.90643710
     atom    7 type  4   force =    -3.00599086    0.85674747   -1.00303844
     atom    8 type  4   force =    -1.48168274    2.01589319   -1.90629393
     atom    9 type  4   force =     3.00609615   -0.85673680    1.00293882
     atom   10 type  3   force =     0.80349605   -5.85280490    0.91664472
     atom   11 type  3   force =    -6.59220181    3.43758993   -0.68332631
     atom   12 type  3   force =    -0.80370418    5.85262711   -0.91693662
     atom   13 type  3   force =     6.59225634   -3.43755525    0.68346677
     atom   14 type  3   force =    -1.62732104   -1.11974226   -6.25549120
     atom   15 type  3   force =     0.97045331    2.58905188   -4.39181327
     atom   16 type  3   force =     1.62749644    1.11973823    6.25547705
     atom   17 type  3   force =    -0.97083818   -2.58876055    4.39209046
     atom   18 type  3   force =     5.41409848   -6.51517704   -1.26832458
     atom   19 type  3   force =    -2.81129984    0.56368348    2.25032503
     atom   20 type  3   force =    -3.93125026   -4.29523805   -7.14101520
     atom   21 type  3   force =     8.35085621   -0.24340131    0.87164450
     atom   22 type  3   force =    -5.41418187    6.51516938    1.26829926
     atom   23 type  3   force =     2.81148506   -0.56365266   -2.25031856
     atom   24 type  3   force =     3.93115802    4.29526823    7.14098126
     atom   25 type  3   force =    -8.35072010    0.24337357   -0.87165745
     The core correction contribution to forces
     atom    1 type  2   force =     0.00000000    0.00000000    0.00000000
     atom    2 type  1   force =    -0.00174408    0.00053801    0.00065812
     atom    3 type  1   force =     0.00116381   -0.00051147    0.00059514
     atom    4 type  1   force =     0.00174428   -0.00053803   -0.00065819
     atom    5 type  1   force =    -0.00116362    0.00051130   -0.00059483
     atom    6 type  4   force =     0.00109119   -0.00312080   -0.00182353
     atom    7 type  4   force =     0.00220926   -0.00104126    0.00442299
     atom    8 type  4   force =    -0.00108972    0.00312125    0.00182589
     atom    9 type  4   force =    -0.00220912    0.00104119   -0.00442446
     atom   10 type  3   force =     0.00471244    0.00282067    0.01027515
     atom   11 type  3   force =     0.00143322   -0.00268423    0.01455552
     atom   12 type  3   force =    -0.00471201   -0.00282045   -0.01027515
     atom   13 type  3   force =    -0.00143310    0.00268415   -0.01455543
     atom   14 type  3   force =    -0.01360726    0.00243274    0.00725995
     atom   15 type  3   force =     0.01304582   -0.00283916    0.00213745
     atom   16 type  3   force =     0.01360726   -0.00243275   -0.00725975
     atom   17 type  3   force =    -0.01304576    0.00283916   -0.00213800
     atom   18 type  3   force =    -0.00017699    0.01412584   -0.00777268
     atom   19 type  3   force =    -0.00620580   -0.00631205   -0.00924629
     atom   20 type  3   force =    -0.00009273    0.01588767    0.01007679
     atom   21 type  3   force =     0.00052058   -0.00988472    0.00575207
     atom   22 type  3   force =     0.00017693   -0.01412585    0.00777266
     atom   23 type  3   force =     0.00620565    0.00631197    0.00924638
     atom   24 type  3   force =     0.00009278   -0.01588764   -0.01007715
     atom   25 type  3   force =    -0.00052061    0.00988477   -0.00575190
     The Hubbard contrib.    to forces
     atom    1 type  2   force =     0.00000000    0.00000000    0.00000000
     atom    2 type  1   force =     0.00000000    0.00000000    0.00000000
     atom    3 type  1   force =     0.00000000    0.00000000    0.00000000
     atom    4 type  1   force =     0.00000000    0.00000000    0.00000000
     atom    5 type  1   force =     0.00000000    0.00000000    0.00000000
     atom    6 type  4   force =     0.00000000    0.00000000    0.00000000
     atom    7 type  4   force =     0.00000000    0.00000000    0.00000000
     atom    8 type  4   force =     0.00000000    0.00000000    0.00000000
     atom    9 type  4   force =     0.00000000    0.00000000    0.00000000
     atom   10 type  3   force =     0.00000000    0.00000000    0.00000000
     atom   11 type  3   force =     0.00000000    0.00000000    0.00000000
     atom   12 type  3   force =     0.00000000    0.00000000    0.00000000
     atom   13 type  3   force =     0.00000000    0.00000000    0.00000000
     atom   14 type  3   force =     0.00000000    0.00000000    0.00000000
     atom   15 type  3   force =     0.00000000    0.00000000    0.00000000
     atom   16 type  3   force =     0.00000000    0.00000000    0.00000000
     atom   17 type  3   force =     0.00000000    0.00000000    0.00000000
     atom   18 type  3   force =     0.00000000    0.00000000    0.00000000
     atom   19 type  3   force =     0.00000000    0.00000000    0.00000000
     atom   20 type  3   force =     0.00000000    0.00000000    0.00000000
     atom   21 type  3   force =     0.00000000    0.00000000    0.00000000
     atom   22 type  3   force =     0.00000000    0.00000000    0.00000000
     atom   23 type  3   force =     0.00000000    0.00000000    0.00000000
     atom   24 type  3   force =     0.00000000    0.00000000    0.00000000
     atom   25 type  3   force =     0.00000000    0.00000000    0.00000000
     The SCF correction term to forces
     atom    1 type  2   force =    -0.00000000   -0.00000132   -0.00000005
     atom    2 type  1   force =     0.00000389    0.00000054    0.00000042
     atom    3 type  1   force =     0.00000486   -0.00000053    0.00000089
     atom    4 type  1   force =    -0.00000470    0.00000055    0.00000088
     atom    5 type  1   force =    -0.00000327    0.00000203   -0.00000062
     atom    6 type  4   force =     0.00000054    0.00000086   -0.00000032
     atom    7 type  4   force =     0.00000016   -0.00000025    0.00000013
     atom    8 type  4   force =    -0.00000029    0.00000064   -0.00000024
     atom    9 type  4   force =    -0.00000117   -0.00000023    0.00000018
     atom   10 type  3   force =     0.00000208    0.00000136    0.00000125
     atom   11 type  3   force =     0.00000139   -0.00000043   -0.00000056
     atom   12 type  3   force =    -0.00000097    0.00000155    0.00000013
     atom   13 type  3   force =    -0.00000024   -0.00000051   -0.00000117
     atom   14 type  3   force =    -0.00000103   -0.00000014   -0.00000073
     atom   15 type  3   force =     0.00000034   -0.00000017    0.00000038
     atom   16 type  3   force =    -0.00000179   -0.00000002   -0.00000036
     atom   17 type  3   force =    -0.00000189    0.00000034    0.00000067
     atom   18 type  3   force =     0.00000222    0.00000005   -0.00000093
     atom   19 type  3   force =     0.00000127   -0.00000182    0.00000070
     atom   20 type  3   force =    -0.00000155    0.00000159   -0.00000112
     atom   21 type  3   force =    -0.00000065    0.00000212    0.00000118
     atom   22 type  3   force =     0.00000016   -0.00000069   -0.00000025
     atom   23 type  3   force =    -0.00000086   -0.00000235    0.00000095
     atom   24 type  3   force =     0.00000093    0.00000010   -0.00000075
     atom   25 type  3   force =     0.00000111    0.00000149    0.00000087

     Total force =     0.323258     Total SCF correction =     0.000012


     Computing stress (Cartesian axis) and pressure


     negative rho (up, down):  0.000E+00 8.851E-04
          total   stress  (Ry/bohr**3)                   (kbar)     P=     -152.81
  -0.00137951   0.00015540  -0.00007115         -202.93       22.86      -10.47
   0.00015540  -0.00080501   0.00001151           22.86     -118.42        1.69
  -0.00007115   0.00001151  -0.00093182          -10.47        1.69     -137.08

     kinetic stress (kbar)  22473.38     87.11    -49.81
                               87.11  22608.61     -0.69
                              -49.81     -0.69  22627.45

     local   stress (kbar)  -8405.08   3168.20  -6805.50
                             3168.20 -13447.04  -1255.08
                            -6805.50  -1255.08  -6079.97

     nonloc. stress (kbar)  -5685.39      2.68     -7.01
                                2.68  -5666.45     -6.23
                               -7.01     -6.23  -5676.40

     hartree stress (kbar)  12967.60  -1203.99   2914.76
                            -1203.99  15512.72    555.85
                             2914.76    555.85  12357.53

     exc-cor stress (kbar)  -2387.67     -2.66      2.67
                               -2.66  -2390.23     -0.08
                                2.67     -0.08  -2390.67

     corecor stress (kbar)  -2687.01      0.06     -0.14
                                0.06  -2688.07      0.78
                               -0.14      0.78  -2687.54

     ewald   stress (kbar) -16478.76  -2028.54   3934.56
                            -2028.54 -14047.96    707.14
                             3934.56    707.14 -18287.48

     hubbard stress (kbar)      0.00      0.00      0.00
                                0.00      0.00      0.00
                                0.00      0.00      0.00

     DFT-D   stress (kbar)      0.00      0.00      0.00
                                0.00      0.00      0.00
                                0.00      0.00      0.00

     XDM     stress (kbar)      0.00      0.00      0.00
                                0.00      0.00      0.00
                                0.00      0.00      0.00

     dft-nl  stress (kbar)      0.00      0.00      0.00
                                0.00      0.00      0.00
                                0.00      0.00      0.00

     TS-vdW  stress (kbar)      0.00      0.00      0.00
                                0.00      0.00      0.00
                                0.00      0.00      0.00



     init_run     :   1159.35s CPU   1330.73s WALL (       1 calls)
     electrons    :  98890.66s CPU 113539.56s WALL (       1 calls)
     forces       :    149.19s CPU    173.90s WALL (       1 calls)
     stress       :    784.72s CPU    898.25s WALL (       1 calls)

     Called by init_run:
     wfcinit      :   1139.52s CPU   1308.36s WALL (       1 calls)
     wfcinit:atom :      0.79s CPU      0.87s WALL (     316 calls)
     wfcinit:wfcr :   1133.49s CPU   1300.97s WALL (     316 calls)
     potinit      :      8.12s CPU      9.43s WALL (       1 calls)
     hinit0       :      7.69s CPU      7.84s WALL (       1 calls)

     Called by electrons:
     c_bands      :  81625.73s CPU  93724.03s WALL (      38 calls)
     sum_band     :  16955.08s CPU  19458.44s WALL (      38 calls)
     v_of_rho     :    101.07s CPU    116.90s WALL (      39 calls)
     v_h          :      8.89s CPU     10.30s WALL (      39 calls)
     v_xc         :     96.72s CPU    112.46s WALL (      41 calls)
     newd         :     91.59s CPU    106.14s WALL (      39 calls)
     PAW_pot      :     21.83s CPU     25.04s WALL (      39 calls)
     mix_rho      :     80.91s CPU     91.57s WALL (      38 calls)

     Called by c_bands:
     init_us_2    :     81.58s CPU     88.82s WALL (   24964 calls)
     cegterg      :  80661.45s CPU  92561.47s WALL (   12008 calls)

     Called by sum_band:
     sum_band:wei :      0.69s CPU      0.78s WALL (      38 calls)
     sum_band:loo :  16787.63s CPU  19263.13s WALL (      38 calls)
     sum_band:buf :     20.10s CPU     21.08s WALL (   12008 calls)
     sum_band:ini :     32.07s CPU     33.57s WALL (   12008 calls)
     sum_band:cal :   1211.36s CPU   1401.61s WALL (   12008 calls)
     sum_band:bec :      2.87s CPU      2.88s WALL (   12008 calls)
     addusdens    :    103.79s CPU    122.14s WALL (      38 calls)
     addusd:skk   :      0.79s CPU      0.90s WALL (     114 calls)
     addusd:dgemm :      5.18s CPU      9.58s WALL (     228 calls)
     addusd:qvan2 :     97.01s CPU    109.81s WALL (     228 calls)

     Called by *egterg:
     cdiaghg      :   1328.23s CPU   1553.63s WALL (   41634 calls)
     cegterg:over :   4416.27s CPU   5069.47s WALL (   29626 calls)
     cegterg:upda :    211.60s CPU    239.10s WALL (   29626 calls)
     cegterg:last :    387.10s CPU    438.16s WALL (   18518 calls)
     h_psi        :  71085.36s CPU  81569.02s WALL (   41950 calls)
     s_psi        :    451.73s CPU    526.72s WALL (   41950 calls)
     g_psi        :     24.69s CPU     33.10s WALL (   29626 calls)

     Called by h_psi:
     h_psi:calbec :   3536.76s CPU   4090.27s WALL (   41950 calls)
     vloc_psi     :  67012.78s CPU  76858.61s WALL (   41950 calls)
     add_vuspsi   :    482.94s CPU    563.69s WALL (   41950 calls)

     General routines
     calbec       :   5032.21s CPU   5815.97s WALL (   55538 calls)
     fft          :    197.34s CPU    228.04s WALL (    1013 calls)
     ffts         :      2.48s CPU      2.75s WALL (     154 calls)
     fftw         :  81607.04s CPU  93724.06s WALL ( 7298508 calls)
     interpolate  :     13.41s CPU     16.17s WALL (      78 calls)

     Parallel routines
     fft_scatt_xy :    367.25s CPU    372.53s WALL ( 7299675 calls)
     fft_scatt_yz :  80026.54s CPU  92150.75s WALL ( 7299675 calls)

     PAW routines
     PAW_pot      :     21.83s CPU     25.04s WALL (      39 calls)

     PWSCF        :   1d 4h 3m CPU   1d 8h12m WALL


   This run was terminated on:  10:19:34  31Jan2023            

=------------------------------------------------------------------------------=
   JOB DONE.
=------------------------------------------------------------------------------=
Note: The following floating-point exceptions are signalling: IEEE_UNDERFLOW_FLAG IEEE_DENORMAL
Note: The following floating-point exceptions are signalling: IEEE_DENORMAL
Note: The following floating-point exceptions are signalling: IEEE_DENORMAL
Note: The following floating-point exceptions are signalling: IEEE_DENORMAL
Note: The following floating-point exceptions are signalling: IEEE_INVALID_FLAG IEEE_DENORMAL
Note: The following floating-point exceptions are signalling: IEEE_DENORMAL
Note: The following floating-point exceptions are signalling: IEEE_DENORMAL
Note: The following floating-point exceptions are signalling: IEEE_DENORMAL
Note: The following floating-point exceptions are signalling: IEEE_DENORMAL
Note: The following floating-point exceptions are signalling: IEEE_DENORMAL
Note: The following floating-point exceptions are signalling: IEEE_DENORMAL
Note: The following floating-point exceptions are signalling: IEEE_DENORMAL
Note: The following floating-point exceptions are signalling: IEEE_DENORMAL
Note: The following floating-point exceptions are signalling: IEEE_DENORMAL
Note: The following floating-point exceptions are signalling: IEEE_DENORMAL
Note: The following floating-point exceptions are signalling: IEEE_DENORMAL
Note: The following floating-point exceptions are signalling: IEEE_DENORMAL
Note: The following floating-point exceptions are signalling: IEEE_DENORMAL
Note: The following floating-point exceptions are signalling: IEEE_DENORMAL
Note: The following floating-point exceptions are signalling: IEEE_DENORMAL
Note: The following floating-point exceptions are signalling: IEEE_DENORMAL
Note: The following floating-point exceptions are signalling: IEEE_DENORMAL
Note: The following floating-point exceptions are signalling: IEEE_INVALID_FLAG IEEE_DENORMAL
Note: The following floating-point exceptions are signalling: IEEE_DENORMAL
Note: The following floating-point exceptions are signalling: IEEE_DENORMAL
Note: The following floating-point exceptions are signalling: IEEE_DENORMAL
Note: The following floating-point exceptions are signalling: IEEE_DENORMAL
Note: The following floating-point exceptions are signalling: IEEE_DENORMAL
Note: The following floating-point exceptions are signalling: IEEE_DENORMAL
