
     Program PWSCF v.6.7MaX starts on 24Jan2023 at  8:45:23 

     This program is part of the open-source Quantum ESPRESSO suite
     for quantum simulation of materials; please cite
         "P. Giannozzi et al., J. Phys.:Condens. Matter 21 395502 (2009);
         "P. Giannozzi et al., J. Phys.:Condens. Matter 29 465901 (2017);
          URL http://www.quantum-espresso.org", 
     in publications or presentations arising from this work. More details at
     http://www.quantum-espresso.org/quote

     Parallel version (MPI), running on    32 processors

     MPI processes distributed on     2 nodes
     R & G space division:  proc/nbgrp/npool/nimage =      32
     Reading input from scale_1da-00.in

     Current dimensions of program PWSCF are:
     Max number of different atomic species (ntypx) = 10
     Max number of k-points (npk) =  40000
     Max angular momentum in pseudopotentials (lmaxx) =  3
     Message from routine read_pp_mesh:
     mesh size missing, using the one in header
     file Fe.pbe-spn-kjpaw_psl.0.2.1.UPF: wavefunction(s)  3D renormalized
     file O.pbe-n-kjpaw_psl.0.1.UPF: wavefunction(s)  2P renormalized

     Subspace diagonalization in iterative solution of the eigenvalue problem:
     a serial algorithm will be used

     Message from routine setup:
     using ibrav=0 with symmetry is DISCOURAGED, use correct ibrav instead

     Parallelization info
     --------------------
     sticks:   dense  smooth     PW     G-vecs:    dense   smooth      PW
     Min         589     218     59                38441     8668    1217
     Max         590     219     60                38444     8671    1221
     Sum       18873    6997   1891              1230153   277403   39017



     bravais-lattice index     =            0
     lattice parameter (alat)  =      18.6818  a.u.
     unit-cell volume          =    2052.3399 (a.u.)^3
     number of atoms/cell      =           25
     number of atomic types    =            4
     number of electrons       =       189.00
     number of Kohn-Sham states=          114
     kinetic-energy cutoff     =     100.0000  Ry
     charge density cutoff     =    1080.0000  Ry
     scf convergence threshold =      2.0E-10
     mixing beta               =       0.4000
     number of iterations used =            8  plain     mixing
     Exchange-correlation= PBE
                           (   1   4   3   4   0   0   0)

     celldm(1)=  18.681804  celldm(2)=   0.000000  celldm(3)=   0.000000
     celldm(4)=   0.000000  celldm(5)=   0.000000  celldm(6)=   0.000000

     crystal axes: (cart. coord. in units of alat)
               a(1) = (   1.000000   0.000000   0.000000 )  
               a(2) = (   0.000000   0.629042   0.000000 )  
               a(3) = (   0.000000   0.000000   0.500395 )  

     reciprocal axes: (cart. coord. in units 2 pi/alat)
               b(1) = (  1.000000  0.000000  0.000000 )  
               b(2) = (  0.000000  1.589719  0.000000 )  
               b(3) = (  0.000000  0.000000  1.998420 )  


     PseudoPot. # 1 for Fe read from file:
     /opt/QEpot/SSSP_precision_pseudos/Fe.pbe-spn-kjpaw_psl.0.2.1.UPF
     MD5 check sum: e86618425769142926afa95317d90200
     Pseudo is Projector augmented-wave + core cor, Zval = 16.0
     Generated using "atomic" code by A. Dal Corso  v.5.0.99 svn rev. 10869
     Shape of augmentation charge: PSQ
     Using radial grid of 1191 points,  6 beta functions with: 
                l(1) =   0
                l(2) =   0
                l(3) =   1
                l(4) =   1
                l(5) =   2
                l(6) =   2
     Q(r) pseudized with 0 coefficients 


     PseudoPot. # 2 for Na read from file:
     /opt/QEpot/SSSP_precision_pseudos/Na_ONCV_PBE-1.0.oncvpsp.upf
     MD5 check sum: 24a298df0a6742ae313db96548fdb2a4
     Pseudo is Norm-conserving, Zval =  9.0
     Generated using ONCVPSP code by D. R. Hamann
     Using radial grid of 1992 points,  4 beta functions with: 
                l(1) =   0
                l(2) =   0
                l(3) =   1
                l(4) =   1

     PseudoPot. # 3 for O  read from file:
     /opt/QEpot/SSSP_precision_pseudos/O.pbe-n-kjpaw_psl.0.1.UPF
     MD5 check sum: 0234752ac141de4415c5fc33072bef88
     Pseudo is Projector augmented-wave + core cor, Zval =  6.0
     Generated using "atomic" code by A. Dal Corso  v.5.0.99 svn rev. 10869
     Shape of augmentation charge: BESSEL
     Using radial grid of 1095 points,  4 beta functions with: 
                l(1) =   0
                l(2) =   0
                l(3) =   1
                l(4) =   1
     Q(r) pseudized with 0 coefficients 


     PseudoPot. # 4 for P  read from file:
     /opt/QEpot/SSSP_precision_pseudos/P.pbe-n-rrkjus_psl.1.0.0.UPF
     MD5 check sum: 8b930f418f0a4573dca56cd030ffe088
     Pseudo is Ultrasoft + core correction, Zval =  5.0
     Generated using "atomic" code by A. Dal Corso  v.5.1
     Using radial grid of 1147 points,  6 beta functions with: 
                l(1) =   0
                l(2) =   0
                l(3) =   1
                l(4) =   1
                l(5) =   2
                l(6) =   2
     Q(r) pseudized with 0 coefficients 


     atomic species   valence    mass     pseudopotential
        Fe            16.00    55.84500     Fe( 1.00)
        Na             9.00    22.98977     Na( 1.00)
        O              6.00    15.99940     O ( 1.00)
        P              5.00    30.97376     P ( 1.00)

     Starting magnetic structure 
     atomic species   magnetization
        Fe           0.312
        Na           0.000
        O            0.000
        P            0.000

      2 Sym. Ops., with inversion, found ( 1 have fractional translation)


                                    s                        frac. trans.

      isym =  1     identity                                     

 cryst.   s( 1) = (     1          0          0      )
                  (     0          1          0      )
                  (     0          0          1      )

 cart.    s( 1) = (  1.0000000  0.0000000  0.0000000 )
                  (  0.0000000  1.0000000  0.0000000 )
                  (  0.0000000  0.0000000  1.0000000 )


      isym =  2     inversion                                    

 cryst.   s( 2) = (    -1          0          0      )    f =(  0.0000040 )
                  (     0         -1          0      )       (  0.0000000 )
                  (     0          0         -1      )       ( -0.0000060 )

 cart.    s( 2) = ( -1.0000000  0.0000000  0.0000000 )    f =(  0.0000040 )
                  (  0.0000000 -1.0000000  0.0000000 )       (  0.0000000 )
                  (  0.0000000  0.0000000 -1.0000000 )       ( -0.0000030 )


   Cartesian axes

     site n.     atom                  positions (alat units)
         1           Na  tau(   1) = (   0.9999980   0.0000000   0.2501991  )
         2           Fe  tau(   2) = (   0.2996860   0.4864319   0.4265484  )
         3           Fe  tau(   3) = (   0.2274400   0.2133006   0.2550254  )
         4           Fe  tau(   4) = (   0.7003200   0.1426133   0.0738493  )
         5           Fe  tau(   5) = (   0.7725660   0.4157446   0.2453728  )
         6           P   tau(   6) = (   0.0937970   0.4110211   0.1336846  )
         7           P   tau(   7) = (   0.3977930   0.1581581   0.4733014  )
         8           P   tau(   8) = (   0.9062090   0.2180241   0.3667157  )
         9           P   tau(   9) = (   0.6022130   0.4708870   0.0270959  )
        10           O   tau(  10) = (   0.1764850   0.4317845   0.2674923  )
        11           O   tau(  11) = (   0.3589780   0.1577927   0.1227159  )
        12           O   tau(  12) = (   0.8235200   0.1972607   0.2329045  )
        13           O   tau(  13) = (   0.6410280   0.4712525   0.3776828  )
        14           O   tau(  14) = (   0.4562740   0.4884769   0.0436790  )
        15           O   tau(  15) = (   0.0496550   0.1847050   0.3438681  )
        16           O   tau(  16) = (   0.5437320   0.1405682   0.4567193  )
        17           O   tau(  17) = (   0.9503500   0.4443402   0.1565296  )
        18           O   tau(  18) = (   0.1479210   0.5174135   0.0324381  )
        19           O   tau(  19) = (   0.3206550   0.0517419   0.3845472  )
        20           O   tau(  20) = (   0.8792370   0.3657213   0.4066172  )
        21           O   tau(  21) = (   0.6516400   0.3388706   0.1042003  )
        22           O   tau(  22) = (   0.8520850   0.1116317   0.4679601  )
        23           O   tau(  23) = (   0.6793510   0.5773033   0.1158510  )
        24           O   tau(  24) = (   0.1207690   0.2633233   0.0937806  )
        25           O   tau(  25) = (   0.3483660   0.2901746   0.3961980  )

   Crystallographic axes

     site n.     atom                  positions (cryst. coord.)
         1           Na  tau(   1) = (  0.9999980  0.0000000  0.5000030  )
         2           Fe  tau(   2) = (  0.2996860  0.7732900  0.8524230  )
         3           Fe  tau(   3) = (  0.2274400  0.3390880  0.5096480  )
         4           Fe  tau(   4) = (  0.7003200  0.2267150  0.1475820  )
         5           Fe  tau(   5) = (  0.7725660  0.6609170  0.4903580  )
         6           P   tau(   6) = (  0.0937970  0.6534080  0.2671580  )
         7           P   tau(   7) = (  0.3977930  0.2514270  0.9458550  )
         8           P   tau(   8) = (  0.9062090  0.3465970  0.7328520  )
         9           P   tau(   9) = (  0.6022130  0.7485780  0.0541490  )
        10           O   tau(  10) = (  0.1764850  0.6864160  0.5345620  )
        11           O   tau(  11) = (  0.3589780  0.2508460  0.2452380  )
        12           O   tau(  12) = (  0.8235200  0.3135890  0.4654410  )
        13           O   tau(  13) = (  0.6410280  0.7491590  0.7547690  )
        14           O   tau(  14) = (  0.4562740  0.7765410  0.0872890  )
        15           O   tau(  15) = (  0.0496550  0.2936290  0.6871930  )
        16           O   tau(  16) = (  0.5437320  0.2234640  0.9127170  )
        17           O   tau(  17) = (  0.9503500  0.7063760  0.3128120  )
        18           O   tau(  18) = (  0.1479210  0.8225420  0.0648250  )
        19           O   tau(  19) = (  0.3206550  0.0822550  0.7684870  )
        20           O   tau(  20) = (  0.8792370  0.5813940  0.8125920  )
        21           O   tau(  21) = (  0.6516400  0.5387090  0.2082360  )
        22           O   tau(  22) = (  0.8520850  0.1774630  0.9351810  )
        23           O   tau(  23) = (  0.6793510  0.9177500  0.2315190  )
        24           O   tau(  24) = (  0.1207690  0.4186100  0.1874130  )
        25           O   tau(  25) = (  0.3483660  0.4612960  0.7917700  )

     number of k points=   158  Marzari-Vanderbilt smearing, width (Ry)=  0.0073
                       cart. coord. in units 2pi/alat
        k(    1) = (   0.0000000   0.0000000   0.0000000), wk =   0.0031746
        k(    2) = (   0.0000000   0.0000000   0.2220467), wk =   0.0063492
        k(    3) = (   0.0000000   0.0000000   0.4440934), wk =   0.0063492
        k(    4) = (   0.0000000   0.0000000   0.6661401), wk =   0.0063492
        k(    5) = (   0.0000000   0.0000000   0.8881868), wk =   0.0063492
        k(    6) = (   0.0000000   0.2271027   0.0000000), wk =   0.0063492
        k(    7) = (   0.0000000   0.2271027   0.2220467), wk =   0.0063492
        k(    8) = (   0.0000000   0.2271027   0.4440934), wk =   0.0063492
        k(    9) = (   0.0000000   0.2271027   0.6661401), wk =   0.0063492
        k(   10) = (   0.0000000   0.2271027   0.8881868), wk =   0.0063492
        k(   11) = (   0.0000000   0.4542054   0.0000000), wk =   0.0063492
        k(   12) = (   0.0000000   0.4542054   0.2220467), wk =   0.0063492
        k(   13) = (   0.0000000   0.4542054   0.4440934), wk =   0.0063492
        k(   14) = (   0.0000000   0.4542054   0.6661401), wk =   0.0063492
        k(   15) = (   0.0000000   0.4542054   0.8881868), wk =   0.0063492
        k(   16) = (   0.0000000   0.6813081   0.0000000), wk =   0.0063492
        k(   17) = (   0.0000000   0.6813081   0.2220467), wk =   0.0063492
        k(   18) = (   0.0000000   0.6813081   0.4440934), wk =   0.0063492
        k(   19) = (   0.0000000   0.6813081   0.6661401), wk =   0.0063492
        k(   20) = (   0.0000000   0.6813081   0.8881868), wk =   0.0063492
        k(   21) = (   0.2000000   0.0000000   0.0000000), wk =   0.0063492
        k(   22) = (   0.2000000   0.0000000   0.2220467), wk =   0.0063492
        k(   23) = (   0.2000000   0.0000000   0.4440934), wk =   0.0063492
        k(   24) = (   0.2000000   0.0000000   0.6661401), wk =   0.0063492
        k(   25) = (   0.2000000   0.0000000   0.8881868), wk =   0.0063492
        k(   26) = (   0.2000000   0.2271027   0.0000000), wk =   0.0063492
        k(   27) = (   0.2000000   0.2271027   0.2220467), wk =   0.0063492
        k(   28) = (   0.2000000   0.2271027   0.4440934), wk =   0.0063492
        k(   29) = (   0.2000000   0.2271027   0.6661401), wk =   0.0063492
        k(   30) = (   0.2000000   0.2271027   0.8881868), wk =   0.0063492
        k(   31) = (   0.2000000   0.4542054   0.0000000), wk =   0.0063492
        k(   32) = (   0.2000000   0.4542054   0.2220467), wk =   0.0063492
        k(   33) = (   0.2000000   0.4542054   0.4440934), wk =   0.0063492
        k(   34) = (   0.2000000   0.4542054   0.6661401), wk =   0.0063492
        k(   35) = (   0.2000000   0.4542054   0.8881868), wk =   0.0063492
        k(   36) = (   0.2000000   0.6813081   0.0000000), wk =   0.0063492
        k(   37) = (   0.2000000   0.6813081   0.2220467), wk =   0.0063492
        k(   38) = (   0.2000000   0.6813081   0.4440934), wk =   0.0063492
        k(   39) = (   0.2000000   0.6813081   0.6661401), wk =   0.0063492
        k(   40) = (   0.2000000   0.6813081   0.8881868), wk =   0.0063492
        k(   41) = (   0.4000000   0.0000000   0.0000000), wk =   0.0063492
        k(   42) = (   0.4000000   0.0000000   0.2220467), wk =   0.0063492
        k(   43) = (   0.4000000   0.0000000   0.4440934), wk =   0.0063492
        k(   44) = (   0.4000000   0.0000000   0.6661401), wk =   0.0063492
        k(   45) = (   0.4000000   0.0000000   0.8881868), wk =   0.0063492
        k(   46) = (   0.4000000   0.2271027   0.0000000), wk =   0.0063492
        k(   47) = (   0.4000000   0.2271027   0.2220467), wk =   0.0063492
        k(   48) = (   0.4000000   0.2271027   0.4440934), wk =   0.0063492
        k(   49) = (   0.4000000   0.2271027   0.6661401), wk =   0.0063492
        k(   50) = (   0.4000000   0.2271027   0.8881868), wk =   0.0063492
        k(   51) = (   0.4000000   0.4542054   0.0000000), wk =   0.0063492
        k(   52) = (   0.4000000   0.4542054   0.2220467), wk =   0.0063492
        k(   53) = (   0.4000000   0.4542054   0.4440934), wk =   0.0063492
        k(   54) = (   0.4000000   0.4542054   0.6661401), wk =   0.0063492
        k(   55) = (   0.4000000   0.4542054   0.8881868), wk =   0.0063492
        k(   56) = (   0.4000000   0.6813081   0.0000000), wk =   0.0063492
        k(   57) = (   0.4000000   0.6813081   0.2220467), wk =   0.0063492
        k(   58) = (   0.4000000   0.6813081   0.4440934), wk =   0.0063492
        k(   59) = (   0.4000000   0.6813081   0.6661401), wk =   0.0063492
        k(   60) = (   0.4000000   0.6813081   0.8881868), wk =   0.0063492
        k(   61) = (   0.0000000   0.2271027  -0.2220467), wk =   0.0063492
        k(   62) = (   0.0000000   0.2271027  -0.4440934), wk =   0.0063492
        k(   63) = (   0.0000000   0.2271027  -0.6661401), wk =   0.0063492
        k(   64) = (   0.0000000   0.2271027  -0.8881868), wk =   0.0063492
        k(   65) = (   0.0000000   0.4542054  -0.2220467), wk =   0.0063492
        k(   66) = (   0.0000000   0.4542054  -0.4440934), wk =   0.0063492
        k(   67) = (   0.0000000   0.4542054  -0.6661401), wk =   0.0063492
        k(   68) = (   0.0000000   0.4542054  -0.8881868), wk =   0.0063492
        k(   69) = (   0.0000000   0.6813081  -0.2220467), wk =   0.0063492
        k(   70) = (   0.0000000   0.6813081  -0.4440934), wk =   0.0063492
        k(   71) = (   0.0000000   0.6813081  -0.6661401), wk =   0.0063492
        k(   72) = (   0.0000000   0.6813081  -0.8881868), wk =   0.0063492
        k(   73) = (   0.2000000   0.0000000  -0.2220467), wk =   0.0063492
        k(   74) = (   0.2000000   0.0000000  -0.4440934), wk =   0.0063492
        k(   75) = (   0.2000000   0.0000000  -0.6661401), wk =   0.0063492
        k(   76) = (   0.2000000   0.0000000  -0.8881868), wk =   0.0063492
        k(   77) = (  -0.2000000   0.2271027   0.0000000), wk =   0.0063492
        k(   78) = (  -0.2000000   0.2271027  -0.2220467), wk =   0.0063492
        k(   79) = (   0.2000000  -0.2271027  -0.2220467), wk =   0.0063492
        k(   80) = (  -0.2000000  -0.2271027   0.2220467), wk =   0.0063492
        k(   81) = (  -0.2000000   0.2271027  -0.4440934), wk =   0.0063492
        k(   82) = (   0.2000000  -0.2271027  -0.4440934), wk =   0.0063492
        k(   83) = (  -0.2000000  -0.2271027   0.4440934), wk =   0.0063492
        k(   84) = (  -0.2000000   0.2271027  -0.6661401), wk =   0.0063492
        k(   85) = (   0.2000000  -0.2271027  -0.6661401), wk =   0.0063492
        k(   86) = (  -0.2000000  -0.2271027   0.6661401), wk =   0.0063492
        k(   87) = (  -0.2000000   0.2271027  -0.8881868), wk =   0.0063492
        k(   88) = (   0.2000000  -0.2271027  -0.8881868), wk =   0.0063492
        k(   89) = (  -0.2000000  -0.2271027   0.8881868), wk =   0.0063492
        k(   90) = (  -0.2000000   0.4542054   0.0000000), wk =   0.0063492
        k(   91) = (  -0.2000000   0.4542054  -0.2220467), wk =   0.0063492
        k(   92) = (   0.2000000  -0.4542054  -0.2220467), wk =   0.0063492
        k(   93) = (  -0.2000000  -0.4542054   0.2220467), wk =   0.0063492
        k(   94) = (  -0.2000000   0.4542054  -0.4440934), wk =   0.0063492
        k(   95) = (   0.2000000  -0.4542054  -0.4440934), wk =   0.0063492
        k(   96) = (  -0.2000000  -0.4542054   0.4440934), wk =   0.0063492
        k(   97) = (  -0.2000000   0.4542054  -0.6661401), wk =   0.0063492
        k(   98) = (   0.2000000  -0.4542054  -0.6661401), wk =   0.0063492
        k(   99) = (  -0.2000000  -0.4542054   0.6661401), wk =   0.0063492
        k(  100) = (  -0.2000000   0.4542054  -0.8881868), wk =   0.0063492
        k(  101) = (   0.2000000  -0.4542054  -0.8881868), wk =   0.0063492
        k(  102) = (  -0.2000000  -0.4542054   0.8881868), wk =   0.0063492
        k(  103) = (  -0.2000000   0.6813081   0.0000000), wk =   0.0063492
        k(  104) = (  -0.2000000   0.6813081  -0.2220467), wk =   0.0063492
        k(  105) = (   0.2000000  -0.6813081  -0.2220467), wk =   0.0063492
        k(  106) = (  -0.2000000  -0.6813081   0.2220467), wk =   0.0063492
        k(  107) = (  -0.2000000   0.6813081  -0.4440934), wk =   0.0063492
        k(  108) = (   0.2000000  -0.6813081  -0.4440934), wk =   0.0063492
        k(  109) = (  -0.2000000  -0.6813081   0.4440934), wk =   0.0063492
        k(  110) = (  -0.2000000   0.6813081  -0.6661401), wk =   0.0063492
        k(  111) = (   0.2000000  -0.6813081  -0.6661401), wk =   0.0063492
        k(  112) = (  -0.2000000  -0.6813081   0.6661401), wk =   0.0063492
        k(  113) = (  -0.2000000   0.6813081  -0.8881868), wk =   0.0063492
        k(  114) = (   0.2000000  -0.6813081  -0.8881868), wk =   0.0063492
        k(  115) = (  -0.2000000  -0.6813081   0.8881868), wk =   0.0063492
        k(  116) = (   0.4000000   0.0000000  -0.2220467), wk =   0.0063492
        k(  117) = (   0.4000000   0.0000000  -0.4440934), wk =   0.0063492
        k(  118) = (   0.4000000   0.0000000  -0.6661401), wk =   0.0063492
        k(  119) = (   0.4000000   0.0000000  -0.8881868), wk =   0.0063492
        k(  120) = (  -0.4000000   0.2271027   0.0000000), wk =   0.0063492
        k(  121) = (  -0.4000000   0.2271027  -0.2220467), wk =   0.0063492
        k(  122) = (   0.4000000  -0.2271027  -0.2220467), wk =   0.0063492
        k(  123) = (  -0.4000000  -0.2271027   0.2220467), wk =   0.0063492
        k(  124) = (  -0.4000000   0.2271027  -0.4440934), wk =   0.0063492
        k(  125) = (   0.4000000  -0.2271027  -0.4440934), wk =   0.0063492
        k(  126) = (  -0.4000000  -0.2271027   0.4440934), wk =   0.0063492
        k(  127) = (  -0.4000000   0.2271027  -0.6661401), wk =   0.0063492
        k(  128) = (   0.4000000  -0.2271027  -0.6661401), wk =   0.0063492
        k(  129) = (  -0.4000000  -0.2271027   0.6661401), wk =   0.0063492
        k(  130) = (  -0.4000000   0.2271027  -0.8881868), wk =   0.0063492
        k(  131) = (   0.4000000  -0.2271027  -0.8881868), wk =   0.0063492
        k(  132) = (  -0.4000000  -0.2271027   0.8881868), wk =   0.0063492
        k(  133) = (  -0.4000000   0.4542054   0.0000000), wk =   0.0063492
        k(  134) = (  -0.4000000   0.4542054  -0.2220467), wk =   0.0063492
        k(  135) = (   0.4000000  -0.4542054  -0.2220467), wk =   0.0063492
        k(  136) = (  -0.4000000  -0.4542054   0.2220467), wk =   0.0063492
        k(  137) = (  -0.4000000   0.4542054  -0.4440934), wk =   0.0063492
        k(  138) = (   0.4000000  -0.4542054  -0.4440934), wk =   0.0063492
        k(  139) = (  -0.4000000  -0.4542054   0.4440934), wk =   0.0063492
        k(  140) = (  -0.4000000   0.4542054  -0.6661401), wk =   0.0063492
        k(  141) = (   0.4000000  -0.4542054  -0.6661401), wk =   0.0063492
        k(  142) = (  -0.4000000  -0.4542054   0.6661401), wk =   0.0063492
        k(  143) = (  -0.4000000   0.4542054  -0.8881868), wk =   0.0063492
        k(  144) = (   0.4000000  -0.4542054  -0.8881868), wk =   0.0063492
        k(  145) = (  -0.4000000  -0.4542054   0.8881868), wk =   0.0063492
        k(  146) = (  -0.4000000   0.6813081   0.0000000), wk =   0.0063492
        k(  147) = (  -0.4000000   0.6813081  -0.2220467), wk =   0.0063492
        k(  148) = (   0.4000000  -0.6813081  -0.2220467), wk =   0.0063492
        k(  149) = (  -0.4000000  -0.6813081   0.2220467), wk =   0.0063492
        k(  150) = (  -0.4000000   0.6813081  -0.4440934), wk =   0.0063492
        k(  151) = (   0.4000000  -0.6813081  -0.4440934), wk =   0.0063492
        k(  152) = (  -0.4000000  -0.6813081   0.4440934), wk =   0.0063492
        k(  153) = (  -0.4000000   0.6813081  -0.6661401), wk =   0.0063492
        k(  154) = (   0.4000000  -0.6813081  -0.6661401), wk =   0.0063492
        k(  155) = (  -0.4000000  -0.6813081   0.6661401), wk =   0.0063492
        k(  156) = (  -0.4000000   0.6813081  -0.8881868), wk =   0.0063492
        k(  157) = (   0.4000000  -0.6813081  -0.8881868), wk =   0.0063492
        k(  158) = (  -0.4000000  -0.6813081   0.8881868), wk =   0.0063492

                       cryst. coord.
        k(    1) = (   0.0000000   0.0000000   0.0000000), wk =   0.0031746
        k(    2) = (   0.0000000   0.0000000   0.1111111), wk =   0.0063492
        k(    3) = (   0.0000000   0.0000000   0.2222222), wk =   0.0063492
        k(    4) = (   0.0000000   0.0000000   0.3333333), wk =   0.0063492
        k(    5) = (   0.0000000   0.0000000   0.4444444), wk =   0.0063492
        k(    6) = (   0.0000000   0.1428571   0.0000000), wk =   0.0063492
        k(    7) = (   0.0000000   0.1428571   0.1111111), wk =   0.0063492
        k(    8) = (   0.0000000   0.1428571   0.2222222), wk =   0.0063492
        k(    9) = (   0.0000000   0.1428571   0.3333333), wk =   0.0063492
        k(   10) = (   0.0000000   0.1428571   0.4444444), wk =   0.0063492
        k(   11) = (   0.0000000   0.2857143   0.0000000), wk =   0.0063492
        k(   12) = (   0.0000000   0.2857143   0.1111111), wk =   0.0063492
        k(   13) = (   0.0000000   0.2857143   0.2222222), wk =   0.0063492
        k(   14) = (   0.0000000   0.2857143   0.3333333), wk =   0.0063492
        k(   15) = (   0.0000000   0.2857143   0.4444444), wk =   0.0063492
        k(   16) = (   0.0000000   0.4285714   0.0000000), wk =   0.0063492
        k(   17) = (   0.0000000   0.4285714   0.1111111), wk =   0.0063492
        k(   18) = (   0.0000000   0.4285714   0.2222222), wk =   0.0063492
        k(   19) = (   0.0000000   0.4285714   0.3333333), wk =   0.0063492
        k(   20) = (   0.0000000   0.4285714   0.4444444), wk =   0.0063492
        k(   21) = (   0.2000000   0.0000000   0.0000000), wk =   0.0063492
        k(   22) = (   0.2000000   0.0000000   0.1111111), wk =   0.0063492
        k(   23) = (   0.2000000   0.0000000   0.2222222), wk =   0.0063492
        k(   24) = (   0.2000000   0.0000000   0.3333333), wk =   0.0063492
        k(   25) = (   0.2000000   0.0000000   0.4444444), wk =   0.0063492
        k(   26) = (   0.2000000   0.1428571   0.0000000), wk =   0.0063492
        k(   27) = (   0.2000000   0.1428571   0.1111111), wk =   0.0063492
        k(   28) = (   0.2000000   0.1428571   0.2222222), wk =   0.0063492
        k(   29) = (   0.2000000   0.1428571   0.3333333), wk =   0.0063492
        k(   30) = (   0.2000000   0.1428571   0.4444444), wk =   0.0063492
        k(   31) = (   0.2000000   0.2857143   0.0000000), wk =   0.0063492
        k(   32) = (   0.2000000   0.2857143   0.1111111), wk =   0.0063492
        k(   33) = (   0.2000000   0.2857143   0.2222222), wk =   0.0063492
        k(   34) = (   0.2000000   0.2857143   0.3333333), wk =   0.0063492
        k(   35) = (   0.2000000   0.2857143   0.4444444), wk =   0.0063492
        k(   36) = (   0.2000000   0.4285714   0.0000000), wk =   0.0063492
        k(   37) = (   0.2000000   0.4285714   0.1111111), wk =   0.0063492
        k(   38) = (   0.2000000   0.4285714   0.2222222), wk =   0.0063492
        k(   39) = (   0.2000000   0.4285714   0.3333333), wk =   0.0063492
        k(   40) = (   0.2000000   0.4285714   0.4444444), wk =   0.0063492
        k(   41) = (   0.4000000   0.0000000   0.0000000), wk =   0.0063492
        k(   42) = (   0.4000000   0.0000000   0.1111111), wk =   0.0063492
        k(   43) = (   0.4000000   0.0000000   0.2222222), wk =   0.0063492
        k(   44) = (   0.4000000   0.0000000   0.3333333), wk =   0.0063492
        k(   45) = (   0.4000000   0.0000000   0.4444444), wk =   0.0063492
        k(   46) = (   0.4000000   0.1428571   0.0000000), wk =   0.0063492
        k(   47) = (   0.4000000   0.1428571   0.1111111), wk =   0.0063492
        k(   48) = (   0.4000000   0.1428571   0.2222222), wk =   0.0063492
        k(   49) = (   0.4000000   0.1428571   0.3333333), wk =   0.0063492
        k(   50) = (   0.4000000   0.1428571   0.4444444), wk =   0.0063492
        k(   51) = (   0.4000000   0.2857143   0.0000000), wk =   0.0063492
        k(   52) = (   0.4000000   0.2857143   0.1111111), wk =   0.0063492
        k(   53) = (   0.4000000   0.2857143   0.2222222), wk =   0.0063492
        k(   54) = (   0.4000000   0.2857143   0.3333333), wk =   0.0063492
        k(   55) = (   0.4000000   0.2857143   0.4444444), wk =   0.0063492
        k(   56) = (   0.4000000   0.4285714   0.0000000), wk =   0.0063492
        k(   57) = (   0.4000000   0.4285714   0.1111111), wk =   0.0063492
        k(   58) = (   0.4000000   0.4285714   0.2222222), wk =   0.0063492
        k(   59) = (   0.4000000   0.4285714   0.3333333), wk =   0.0063492
        k(   60) = (   0.4000000   0.4285714   0.4444444), wk =   0.0063492
        k(   61) = (   0.0000000   0.1428571  -0.1111111), wk =   0.0063492
        k(   62) = (   0.0000000   0.1428571  -0.2222222), wk =   0.0063492
        k(   63) = (   0.0000000   0.1428571  -0.3333333), wk =   0.0063492
        k(   64) = (   0.0000000   0.1428571  -0.4444444), wk =   0.0063492
        k(   65) = (   0.0000000   0.2857143  -0.1111111), wk =   0.0063492
        k(   66) = (   0.0000000   0.2857143  -0.2222222), wk =   0.0063492
        k(   67) = (   0.0000000   0.2857143  -0.3333333), wk =   0.0063492
        k(   68) = (   0.0000000   0.2857143  -0.4444444), wk =   0.0063492
        k(   69) = (   0.0000000   0.4285714  -0.1111111), wk =   0.0063492
        k(   70) = (   0.0000000   0.4285714  -0.2222222), wk =   0.0063492
        k(   71) = (   0.0000000   0.4285714  -0.3333333), wk =   0.0063492
        k(   72) = (   0.0000000   0.4285714  -0.4444444), wk =   0.0063492
        k(   73) = (   0.2000000   0.0000000  -0.1111111), wk =   0.0063492
        k(   74) = (   0.2000000   0.0000000  -0.2222222), wk =   0.0063492
        k(   75) = (   0.2000000   0.0000000  -0.3333333), wk =   0.0063492
        k(   76) = (   0.2000000   0.0000000  -0.4444444), wk =   0.0063492
        k(   77) = (  -0.2000000   0.1428571   0.0000000), wk =   0.0063492
        k(   78) = (  -0.2000000   0.1428571  -0.1111111), wk =   0.0063492
        k(   79) = (   0.2000000  -0.1428571  -0.1111111), wk =   0.0063492
        k(   80) = (  -0.2000000  -0.1428571   0.1111111), wk =   0.0063492
        k(   81) = (  -0.2000000   0.1428571  -0.2222222), wk =   0.0063492
        k(   82) = (   0.2000000  -0.1428571  -0.2222222), wk =   0.0063492
        k(   83) = (  -0.2000000  -0.1428571   0.2222222), wk =   0.0063492
        k(   84) = (  -0.2000000   0.1428571  -0.3333333), wk =   0.0063492
        k(   85) = (   0.2000000  -0.1428571  -0.3333333), wk =   0.0063492
        k(   86) = (  -0.2000000  -0.1428571   0.3333333), wk =   0.0063492
        k(   87) = (  -0.2000000   0.1428571  -0.4444444), wk =   0.0063492
        k(   88) = (   0.2000000  -0.1428571  -0.4444444), wk =   0.0063492
        k(   89) = (  -0.2000000  -0.1428571   0.4444444), wk =   0.0063492
        k(   90) = (  -0.2000000   0.2857143   0.0000000), wk =   0.0063492
        k(   91) = (  -0.2000000   0.2857143  -0.1111111), wk =   0.0063492
        k(   92) = (   0.2000000  -0.2857143  -0.1111111), wk =   0.0063492
        k(   93) = (  -0.2000000  -0.2857143   0.1111111), wk =   0.0063492
        k(   94) = (  -0.2000000   0.2857143  -0.2222222), wk =   0.0063492
        k(   95) = (   0.2000000  -0.2857143  -0.2222222), wk =   0.0063492
        k(   96) = (  -0.2000000  -0.2857143   0.2222222), wk =   0.0063492
        k(   97) = (  -0.2000000   0.2857143  -0.3333333), wk =   0.0063492
        k(   98) = (   0.2000000  -0.2857143  -0.3333333), wk =   0.0063492
        k(   99) = (  -0.2000000  -0.2857143   0.3333333), wk =   0.0063492
        k(  100) = (  -0.2000000   0.2857143  -0.4444444), wk =   0.0063492
        k(  101) = (   0.2000000  -0.2857143  -0.4444444), wk =   0.0063492
        k(  102) = (  -0.2000000  -0.2857143   0.4444444), wk =   0.0063492
        k(  103) = (  -0.2000000   0.4285714   0.0000000), wk =   0.0063492
        k(  104) = (  -0.2000000   0.4285714  -0.1111111), wk =   0.0063492
        k(  105) = (   0.2000000  -0.4285714  -0.1111111), wk =   0.0063492
        k(  106) = (  -0.2000000  -0.4285714   0.1111111), wk =   0.0063492
        k(  107) = (  -0.2000000   0.4285714  -0.2222222), wk =   0.0063492
        k(  108) = (   0.2000000  -0.4285714  -0.2222222), wk =   0.0063492
        k(  109) = (  -0.2000000  -0.4285714   0.2222222), wk =   0.0063492
        k(  110) = (  -0.2000000   0.4285714  -0.3333333), wk =   0.0063492
        k(  111) = (   0.2000000  -0.4285714  -0.3333333), wk =   0.0063492
        k(  112) = (  -0.2000000  -0.4285714   0.3333333), wk =   0.0063492
        k(  113) = (  -0.2000000   0.4285714  -0.4444444), wk =   0.0063492
        k(  114) = (   0.2000000  -0.4285714  -0.4444444), wk =   0.0063492
        k(  115) = (  -0.2000000  -0.4285714   0.4444444), wk =   0.0063492
        k(  116) = (   0.4000000   0.0000000  -0.1111111), wk =   0.0063492
        k(  117) = (   0.4000000   0.0000000  -0.2222222), wk =   0.0063492
        k(  118) = (   0.4000000   0.0000000  -0.3333333), wk =   0.0063492
        k(  119) = (   0.4000000   0.0000000  -0.4444444), wk =   0.0063492
        k(  120) = (  -0.4000000   0.1428571   0.0000000), wk =   0.0063492
        k(  121) = (  -0.4000000   0.1428571  -0.1111111), wk =   0.0063492
        k(  122) = (   0.4000000  -0.1428571  -0.1111111), wk =   0.0063492
        k(  123) = (  -0.4000000  -0.1428571   0.1111111), wk =   0.0063492
        k(  124) = (  -0.4000000   0.1428571  -0.2222222), wk =   0.0063492
        k(  125) = (   0.4000000  -0.1428571  -0.2222222), wk =   0.0063492
        k(  126) = (  -0.4000000  -0.1428571   0.2222222), wk =   0.0063492
        k(  127) = (  -0.4000000   0.1428571  -0.3333333), wk =   0.0063492
        k(  128) = (   0.4000000  -0.1428571  -0.3333333), wk =   0.0063492
        k(  129) = (  -0.4000000  -0.1428571   0.3333333), wk =   0.0063492
        k(  130) = (  -0.4000000   0.1428571  -0.4444444), wk =   0.0063492
        k(  131) = (   0.4000000  -0.1428571  -0.4444444), wk =   0.0063492
        k(  132) = (  -0.4000000  -0.1428571   0.4444444), wk =   0.0063492
        k(  133) = (  -0.4000000   0.2857143   0.0000000), wk =   0.0063492
        k(  134) = (  -0.4000000   0.2857143  -0.1111111), wk =   0.0063492
        k(  135) = (   0.4000000  -0.2857143  -0.1111111), wk =   0.0063492
        k(  136) = (  -0.4000000  -0.2857143   0.1111111), wk =   0.0063492
        k(  137) = (  -0.4000000   0.2857143  -0.2222222), wk =   0.0063492
        k(  138) = (   0.4000000  -0.2857143  -0.2222222), wk =   0.0063492
        k(  139) = (  -0.4000000  -0.2857143   0.2222222), wk =   0.0063492
        k(  140) = (  -0.4000000   0.2857143  -0.3333333), wk =   0.0063492
        k(  141) = (   0.4000000  -0.2857143  -0.3333333), wk =   0.0063492
        k(  142) = (  -0.4000000  -0.2857143   0.3333333), wk =   0.0063492
        k(  143) = (  -0.4000000   0.2857143  -0.4444444), wk =   0.0063492
        k(  144) = (   0.4000000  -0.2857143  -0.4444444), wk =   0.0063492
        k(  145) = (  -0.4000000  -0.2857143   0.4444444), wk =   0.0063492
        k(  146) = (  -0.4000000   0.4285714   0.0000000), wk =   0.0063492
        k(  147) = (  -0.4000000   0.4285714  -0.1111111), wk =   0.0063492
        k(  148) = (   0.4000000  -0.4285714  -0.1111111), wk =   0.0063492
        k(  149) = (  -0.4000000  -0.4285714   0.1111111), wk =   0.0063492
        k(  150) = (  -0.4000000   0.4285714  -0.2222222), wk =   0.0063492
        k(  151) = (   0.4000000  -0.4285714  -0.2222222), wk =   0.0063492
        k(  152) = (  -0.4000000  -0.4285714   0.2222222), wk =   0.0063492
        k(  153) = (  -0.4000000   0.4285714  -0.3333333), wk =   0.0063492
        k(  154) = (   0.4000000  -0.4285714  -0.3333333), wk =   0.0063492
        k(  155) = (  -0.4000000  -0.4285714   0.3333333), wk =   0.0063492
        k(  156) = (  -0.4000000   0.4285714  -0.4444444), wk =   0.0063492
        k(  157) = (   0.4000000  -0.4285714  -0.4444444), wk =   0.0063492
        k(  158) = (  -0.4000000  -0.4285714   0.4444444), wk =   0.0063492

     Dense  grid:  1230153 G-vectors     FFT dimensions: ( 200, 125, 100)

     Smooth grid:   277403 G-vectors     FFT dimensions: ( 120,  75,  60)

     Dynamical RAM for                 wfc:       1.88 MB

     Dynamical RAM for     wfc (w. buffer):     597.19 MB

     Dynamical RAM for           str. fact:       2.35 MB

     Dynamical RAM for           local pot:       0.00 MB

     Dynamical RAM for          nlocal pot:       4.63 MB

     Dynamical RAM for                qrad:      10.54 MB

     Dynamical RAM for          rho,v,vnew:       8.10 MB

     Dynamical RAM for               rhoin:       2.70 MB

     Dynamical RAM for            rho*nmix:      18.77 MB

     Dynamical RAM for           G-vectors:       2.27 MB

     Dynamical RAM for          h,s,v(r/c):       2.38 MB

     Dynamical RAM for          <psi|beta>:       0.49 MB

     Dynamical RAM for                 psi:       3.77 MB

     Dynamical RAM for                hpsi:       3.77 MB

     Dynamical RAM for                spsi:       3.77 MB

     Dynamical RAM for      wfcinit/wfcrot:       4.96 MB

     Dynamical RAM for           addusdens:     119.08 MB

     Dynamical RAM for          addusforce:     136.81 MB

     Dynamical RAM for         addusstress:     118.79 MB

     Estimated static dynamical RAM per process >     654.05 MB

     Estimated max dynamical RAM per process >     790.86 MB

     Estimated total dynamical RAM >      24.71 GB

     Check: negative core charge=   -0.000003
     Generating pointlists ...
     new r_m :   0.0775 (alat units)  1.4476 (a.u.) for type    1
     new r_m :   0.0878 (alat units)  1.6412 (a.u.) for type    2
     new r_m :   0.0610 (alat units)  1.1400 (a.u.) for type    3
     new r_m :   0.0610 (alat units)  1.1400 (a.u.) for type    4

     Initial potential from superposition of free atoms

     starting charge  188.99132, renormalised to  189.00000
     Starting wfcs are  137 randomized atomic wfcs
     Checking if some PAW data can be deallocated... 
       PAW data deallocated on   24 nodes for type:  1
       PAW data deallocated on   16 nodes for type:  3

     total cpu time spent up to now is     1368.9 secs

     Self-consistent Calculation

     iteration #  1     ecut=   100.00 Ry     beta= 0.40
     Davidson diagonalization with overlap
     ethr =  1.00E-02,  avg # of iterations =  3.0

     negative rho (up, down):  0.000E+00 5.485E-05

     total cpu time spent up to now is     5063.6 secs

     total energy              =   -2123.84275818 Ry
     estimated scf accuracy    <       6.77238693 Ry

     total magnetization       =    19.00 Bohr mag/cell
     absolute magnetization    =    19.00 Bohr mag/cell

     iteration #  2     ecut=   100.00 Ry     beta= 0.40
     Davidson diagonalization with overlap
     ethr =  3.58E-03,  avg # of iterations =  2.0

     negative rho (up, down):  0.000E+00 2.847E-05

     total cpu time spent up to now is     8480.2 secs

     total energy              =   -2122.82754801 Ry
     estimated scf accuracy    <      15.86736305 Ry

     total magnetization       =    11.99 Bohr mag/cell
     absolute magnetization    =    12.61 Bohr mag/cell

     iteration #  3     ecut=   100.00 Ry     beta= 0.40
     Davidson diagonalization with overlap
     ethr =  3.58E-03,  avg # of iterations =  2.0

     negative rho (up, down):  0.000E+00 1.945E-05

     total cpu time spent up to now is    11331.0 secs

     total energy              =   -2123.80375898 Ry
     estimated scf accuracy    <      39.04241798 Ry

     total magnetization       =     4.95 Bohr mag/cell
     absolute magnetization    =     6.31 Bohr mag/cell

     iteration #  4     ecut=   100.00 Ry     beta= 0.40
     Davidson diagonalization with overlap
     ethr =  3.58E-03,  avg # of iterations =  2.0

     negative rho (up, down):  0.000E+00 1.352E-04

     total cpu time spent up to now is    14150.5 secs

     total energy              =   -2125.83625253 Ry
     estimated scf accuracy    <       1.54871743 Ry

     total magnetization       =    19.00 Bohr mag/cell
     absolute magnetization    =    19.00 Bohr mag/cell

     iteration #  5     ecut=   100.00 Ry     beta= 0.40
     Davidson diagonalization with overlap
     ethr =  8.19E-04,  avg # of iterations =  2.0

     negative rho (up, down):  0.000E+00 4.997E-04

     total cpu time spent up to now is    16951.9 secs

     total energy              =   -2125.82227113 Ry
     estimated scf accuracy    <       0.38911197 Ry

     total magnetization       =    19.00 Bohr mag/cell
     absolute magnetization    =    19.00 Bohr mag/cell

     iteration #  6     ecut=   100.00 Ry     beta= 0.40
     Davidson diagonalization with overlap
     c_bands:  2 eigenvalues not converged
     ethr =  2.06E-04,  avg # of iterations =  9.5

     negative rho (up, down):  0.000E+00 5.157E-04

     total cpu time spent up to now is    20827.6 secs

     total energy              =   -2125.89768582 Ry
     estimated scf accuracy    <       0.38620640 Ry

     total magnetization       =    19.00 Bohr mag/cell
     absolute magnetization    =    19.01 Bohr mag/cell

     iteration #  7     ecut=   100.00 Ry     beta= 0.40
     Davidson diagonalization with overlap
     ethr =  2.04E-04,  avg # of iterations =  1.0

     negative rho (up, down):  0.000E+00 7.587E-04

     total cpu time spent up to now is    23513.3 secs

     total energy              =   -2125.89594577 Ry
     estimated scf accuracy    <       0.20580631 Ry

     total magnetization       =    19.00 Bohr mag/cell
     absolute magnetization    =    19.01 Bohr mag/cell

     iteration #  8     ecut=   100.00 Ry     beta= 0.40
     Davidson diagonalization with overlap
     c_bands:  1 eigenvalues not converged
     ethr =  1.09E-04,  avg # of iterations =  2.2

     negative rho (up, down):  0.000E+00 9.014E-04

     total cpu time spent up to now is    26309.8 secs

     total energy              =   -2125.91829837 Ry
     estimated scf accuracy    <       0.15146078 Ry

     total magnetization       =    19.00 Bohr mag/cell
     absolute magnetization    =    19.02 Bohr mag/cell

     iteration #  9     ecut=   100.00 Ry     beta= 0.40
     Davidson diagonalization with overlap
     ethr =  8.01E-05,  avg # of iterations =  1.1

     negative rho (up, down):  0.000E+00 9.169E-04

     total cpu time spent up to now is    29002.8 secs

     total energy              =   -2125.91720914 Ry
     estimated scf accuracy    <       0.18315192 Ry

     total magnetization       =    19.00 Bohr mag/cell
     absolute magnetization    =    19.03 Bohr mag/cell

     iteration # 10     ecut=   100.00 Ry     beta= 0.40
     Davidson diagonalization with overlap
     ethr =  8.01E-05,  avg # of iterations =  1.0

     negative rho (up, down):  0.000E+00 8.886E-04

     total cpu time spent up to now is    31687.6 secs

     total energy              =   -2125.91122674 Ry
     estimated scf accuracy    <       0.12257632 Ry

     total magnetization       =    19.00 Bohr mag/cell
     absolute magnetization    =    19.03 Bohr mag/cell

     iteration # 11     ecut=   100.00 Ry     beta= 0.40
     Davidson diagonalization with overlap
     c_bands:  1 eigenvalues not converged
     ethr =  6.49E-05,  avg # of iterations =  1.2

     negative rho (up, down):  0.000E+00 8.919E-04

     total cpu time spent up to now is    34389.3 secs

     total energy              =   -2125.91630810 Ry
     estimated scf accuracy    <       0.02336265 Ry

     total magnetization       =    19.00 Bohr mag/cell
     absolute magnetization    =    19.04 Bohr mag/cell

     iteration # 12     ecut=   100.00 Ry     beta= 0.40
     Davidson diagonalization with overlap
     c_bands:  1 eigenvalues not converged
     c_bands:  1 eigenvalues not converged
     c_bands:  1 eigenvalues not converged
     c_bands:  1 eigenvalues not converged
     c_bands:  1 eigenvalues not converged
     c_bands:  1 eigenvalues not converged
     c_bands:  1 eigenvalues not converged
     c_bands:  1 eigenvalues not converged
     c_bands:  1 eigenvalues not converged
     c_bands:  1 eigenvalues not converged
     c_bands:  1 eigenvalues not converged
     c_bands:  1 eigenvalues not converged
     c_bands:  1 eigenvalues not converged
     c_bands:  1 eigenvalues not converged
     c_bands:  1 eigenvalues not converged
     c_bands:  1 eigenvalues not converged
     c_bands:  1 eigenvalues not converged
     c_bands:  1 eigenvalues not converged
     c_bands:  1 eigenvalues not converged
     c_bands:  1 eigenvalues not converged
     c_bands:  1 eigenvalues not converged
     c_bands:  1 eigenvalues not converged
     c_bands:  2 eigenvalues not converged
     c_bands:  1 eigenvalues not converged
     c_bands:  1 eigenvalues not converged
     c_bands:  1 eigenvalues not converged
     c_bands:  1 eigenvalues not converged
     c_bands:  1 eigenvalues not converged
     c_bands:  1 eigenvalues not converged
     c_bands:  1 eigenvalues not converged
     c_bands:  1 eigenvalues not converged
     c_bands:  1 eigenvalues not converged
     c_bands:  2 eigenvalues not converged
     c_bands:  1 eigenvalues not converged
     c_bands:  1 eigenvalues not converged
     c_bands:  1 eigenvalues not converged
     c_bands:  1 eigenvalues not converged
     c_bands:  1 eigenvalues not converged
     c_bands:  1 eigenvalues not converged
     ethr =  1.24E-05,  avg # of iterations = 11.2

     negative rho (up, down):  0.000E+00 8.867E-04

     total cpu time spent up to now is    38092.6 secs

     total energy              =   -2125.91686120 Ry
     estimated scf accuracy    <       0.00344339 Ry

     total magnetization       =    19.00 Bohr mag/cell
     absolute magnetization    =    19.04 Bohr mag/cell

     iteration # 13     ecut=   100.00 Ry     beta= 0.40
     Davidson diagonalization with overlap
     c_bands:  1 eigenvalues not converged
     c_bands:  1 eigenvalues not converged
     c_bands:  1 eigenvalues not converged
     c_bands:  1 eigenvalues not converged
     c_bands:  2 eigenvalues not converged
     c_bands:  1 eigenvalues not converged
     c_bands:  1 eigenvalues not converged
     c_bands:  1 eigenvalues not converged
     c_bands:  1 eigenvalues not converged
     c_bands:  1 eigenvalues not converged
     c_bands:  1 eigenvalues not converged
     c_bands:  1 eigenvalues not converged
     c_bands:  1 eigenvalues not converged
     c_bands:  1 eigenvalues not converged
     c_bands:  1 eigenvalues not converged
     c_bands:  1 eigenvalues not converged
     c_bands:  2 eigenvalues not converged
     c_bands:  1 eigenvalues not converged
     c_bands:  1 eigenvalues not converged
     c_bands:  1 eigenvalues not converged
     c_bands:  1 eigenvalues not converged
     c_bands:  1 eigenvalues not converged
     c_bands:  1 eigenvalues not converged
     c_bands:  1 eigenvalues not converged
     c_bands:  1 eigenvalues not converged
     ethr =  1.82E-06,  avg # of iterations = 10.9

     negative rho (up, down):  0.000E+00 8.691E-04

     total cpu time spent up to now is    42799.9 secs

     total energy              =   -2125.91794888 Ry
     estimated scf accuracy    <       0.00221856 Ry

     total magnetization       =    19.00 Bohr mag/cell
     absolute magnetization    =    19.04 Bohr mag/cell

     iteration # 14     ecut=   100.00 Ry     beta= 0.40
     Davidson diagonalization with overlap
     c_bands:  2 eigenvalues not converged
     c_bands:  1 eigenvalues not converged
     ethr =  1.17E-06,  avg # of iterations =  1.3

     negative rho (up, down):  0.000E+00 8.699E-04

     total cpu time spent up to now is    45511.5 secs

     total energy              =   -2125.91803614 Ry
     estimated scf accuracy    <       0.00022003 Ry

     total magnetization       =    19.00 Bohr mag/cell
     absolute magnetization    =    19.04 Bohr mag/cell

     iteration # 15     ecut=   100.00 Ry     beta= 0.40
     Davidson diagonalization with overlap
     c_bands:  1 eigenvalues not converged
     ethr =  1.16E-07,  avg # of iterations =  2.6

     negative rho (up, down):  0.000E+00 8.614E-04

     total cpu time spent up to now is    48461.8 secs

     total energy              =   -2125.91806230 Ry
     estimated scf accuracy    <       0.00007571 Ry

     total magnetization       =    19.00 Bohr mag/cell
     absolute magnetization    =    19.04 Bohr mag/cell

     iteration # 16     ecut=   100.00 Ry     beta= 0.40
     Davidson diagonalization with overlap
     ethr =  4.01E-08,  avg # of iterations =  2.7

     negative rho (up, down):  0.000E+00 8.589E-04

     total cpu time spent up to now is    51375.1 secs

     total energy              =   -2125.91807368 Ry
     estimated scf accuracy    <       0.00001145 Ry

     total magnetization       =    19.00 Bohr mag/cell
     absolute magnetization    =    19.04 Bohr mag/cell

     iteration # 17     ecut=   100.00 Ry     beta= 0.40
     Davidson diagonalization with overlap
     ethr =  6.06E-09,  avg # of iterations =  3.7

     negative rho (up, down):  0.000E+00 8.597E-04

     total cpu time spent up to now is    55167.6 secs

     total energy              =   -2125.91807901 Ry
     estimated scf accuracy    <       0.00002883 Ry

     total magnetization       =    19.00 Bohr mag/cell
     absolute magnetization    =    19.04 Bohr mag/cell

     iteration # 18     ecut=   100.00 Ry     beta= 0.40
     Davidson diagonalization with overlap
     ethr =  6.06E-09,  avg # of iterations =  2.0

     negative rho (up, down):  0.000E+00 8.622E-04

     total cpu time spent up to now is    57983.2 secs

     total energy              =   -2125.91808065 Ry
     estimated scf accuracy    <       0.00000711 Ry

     total magnetization       =    19.00 Bohr mag/cell
     absolute magnetization    =    19.04 Bohr mag/cell

     iteration # 19     ecut=   100.00 Ry     beta= 0.40
     Davidson diagonalization with overlap
     ethr =  3.76E-09,  avg # of iterations =  2.0

     negative rho (up, down):  0.000E+00 8.632E-04

     total cpu time spent up to now is    60784.0 secs

     total energy              =   -2125.91808167 Ry
     estimated scf accuracy    <       0.00000169 Ry

     total magnetization       =    19.00 Bohr mag/cell
     absolute magnetization    =    19.04 Bohr mag/cell

     iteration # 20     ecut=   100.00 Ry     beta= 0.40
     Davidson diagonalization with overlap
     ethr =  8.95E-10,  avg # of iterations =  2.3

     negative rho (up, down):  0.000E+00 8.634E-04

     total cpu time spent up to now is    63657.9 secs

     total energy              =   -2125.91808201 Ry
     estimated scf accuracy    <       0.00000007 Ry

     total magnetization       =    19.00 Bohr mag/cell
     absolute magnetization    =    19.04 Bohr mag/cell

     iteration # 21     ecut=   100.00 Ry     beta= 0.40
     Davidson diagonalization with overlap
     ethr =  3.90E-11,  avg # of iterations =  6.2

     negative rho (up, down):  0.000E+00 8.633E-04

     total cpu time spent up to now is    69545.2 secs

     total energy              =   -2125.91808215 Ry
     estimated scf accuracy    <       0.00000005 Ry

     total magnetization       =    19.00 Bohr mag/cell
     absolute magnetization    =    19.04 Bohr mag/cell

     iteration # 22     ecut=   100.00 Ry     beta= 0.40
     Davidson diagonalization with overlap
     ethr =  2.40E-11,  avg # of iterations =  1.2

     negative rho (up, down):  0.000E+00 8.632E-04

     total cpu time spent up to now is    72244.2 secs

     total energy              =   -2125.91808217 Ry
     estimated scf accuracy    <       0.00000002 Ry

     total magnetization       =    19.00 Bohr mag/cell
     absolute magnetization    =    19.04 Bohr mag/cell

     iteration # 23     ecut=   100.00 Ry     beta= 0.40
     Davidson diagonalization with overlap
     ethr =  9.50E-12,  avg # of iterations =  2.0

     negative rho (up, down):  0.000E+00 8.632E-04

     total cpu time spent up to now is    75204.5 secs

     total energy              =   -2125.91808218 Ry
     estimated scf accuracy    <       0.00000002 Ry

     total magnetization       =    19.00 Bohr mag/cell
     absolute magnetization    =    19.04 Bohr mag/cell

     iteration # 24     ecut=   100.00 Ry     beta= 0.40
     Davidson diagonalization with overlap
     ethr =  9.50E-12,  avg # of iterations =  1.0

     negative rho (up, down):  0.000E+00 8.632E-04

     total cpu time spent up to now is    77886.5 secs

     total energy              =   -2125.91808218 Ry
     estimated scf accuracy    <          7.8E-10 Ry

     total magnetization       =    19.00 Bohr mag/cell
     absolute magnetization    =    19.04 Bohr mag/cell

     iteration # 25     ecut=   100.00 Ry     beta= 0.40
     Davidson diagonalization with overlap
     ethr =  4.14E-13,  avg # of iterations =  4.5

     negative rho (up, down):  0.000E+00 8.632E-04

     total cpu time spent up to now is    81820.7 secs

     total energy              =   -2125.91808218 Ry
     estimated scf accuracy    <          2.1E-10 Ry

     total magnetization       =    19.00 Bohr mag/cell
     absolute magnetization    =    19.04 Bohr mag/cell

     iteration # 26     ecut=   100.00 Ry     beta= 0.40
     Davidson diagonalization with overlap
     ethr =  1.13E-13,  avg # of iterations =  2.8

     negative rho (up, down):  0.000E+00 8.632E-04

     Magnetic moment per site:
     atom:    1    charge:    7.8367    magn:    0.0011    constr:    0.0000
     atom:    2    charge:   12.7263    magn:    3.5544    constr:    0.0000
     atom:    3    charge:   12.7314    magn:    3.5406    constr:    0.0000
     atom:    4    charge:   12.7263    magn:    3.5544    constr:    0.0000
     atom:    5    charge:   12.7314    magn:    3.5406    constr:    0.0000
     atom:    6    charge:    0.7328    magn:    0.0098    constr:    0.0000
     atom:    7    charge:    0.7234    magn:    0.0105    constr:    0.0000
     atom:    8    charge:    0.7328    magn:    0.0098    constr:    0.0000
     atom:    9    charge:    0.7234    magn:    0.0105    constr:    0.0000
     atom:   10    charge:    3.9946    magn:    0.1365    constr:    0.0000
     atom:   11    charge:    4.0034    magn:    0.1081    constr:    0.0000
     atom:   12    charge:    3.9946    magn:    0.1365    constr:    0.0000
     atom:   13    charge:    4.0034    magn:    0.1081    constr:    0.0000
     atom:   14    charge:    4.0518    magn:    0.1086    constr:    0.0000
     atom:   15    charge:    4.0625    magn:    0.0861    constr:    0.0000
     atom:   16    charge:    4.0518    magn:    0.1086    constr:    0.0000
     atom:   17    charge:    4.0625    magn:    0.0861    constr:    0.0000
     atom:   18    charge:    4.0059    magn:    0.1423    constr:    0.0000
     atom:   19    charge:    3.9941    magn:    0.1388    constr:    0.0000
     atom:   20    charge:    3.9957    magn:    0.1189    constr:    0.0000
     atom:   21    charge:    4.0019    magn:    0.1550    constr:    0.0000
     atom:   22    charge:    4.0059    magn:    0.1423    constr:    0.0000
     atom:   23    charge:    3.9941    magn:    0.1388    constr:    0.0000
     atom:   24    charge:    3.9957    magn:    0.1189    constr:    0.0000
     atom:   25    charge:    4.0018    magn:    0.1550    constr:    0.0000

     total cpu time spent up to now is    85185.9 secs

     End of self-consistent calculation

 ------ SPIN UP ------------


          k = 0.0000 0.0000 0.0000 ( 34615 PWs)   bands (ev):

   -84.2772 -84.2769 -84.2631 -84.2618 -50.5149 -50.5145 -50.3394 -50.3381
   -50.2501 -50.2489 -50.2261 -50.2249 -50.2021 -50.2019 -50.1341 -50.1340
   -44.8897 -17.1188 -16.9216 -16.8282 -16.1169 -15.8865 -15.7244 -15.5328
   -13.7271 -13.4950 -13.4890 -13.3925 -13.2308 -13.1699 -13.0777 -13.0535
   -12.9778 -12.9570 -12.8135 -12.8003  -3.8494  -3.3728  -3.1140  -2.9128
    -1.8626  -1.6920  -1.4386  -1.4358  -1.1830  -0.9366  -0.9090  -0.8313
    -0.8113  -0.6198  -0.5855  -0.4078   0.1850   0.3446   0.5304   0.8057
     0.8111   0.8618   0.8658   1.0837   1.1784   1.2726   1.4185   1.4274
     1.6131   1.7015   1.9775   1.9947   2.0327   2.0985   2.2744   2.4035
     2.4622   2.5650   2.6223   2.7115   2.9257   2.9735   3.0725   3.1341
     3.2724   3.3368   3.4749   3.5682   3.7088   3.7732   3.7857   3.9318
     3.9662   4.0899   4.1648   4.3198   4.4236   4.6038   4.6214   4.6295
     4.6671   4.8914   4.9015   5.0197   5.1114   5.2220   5.7067   5.7774
     9.9304  11.7846  11.9342  12.8281  13.0408  13.8115  13.8878  14.2472
    14.3540  14.5996

     occupation numbers 
     1.0000   1.0000   1.0000   1.0000   1.0000   1.0000   1.0000   1.0000
     1.0000   1.0000   1.0000   1.0000   1.0000   1.0000   1.0000   1.0000
     1.0000   1.0000   1.0000   1.0000   1.0000   1.0000   1.0000   1.0000
     1.0000   1.0000   1.0000   1.0000   1.0000   1.0000   1.0000   1.0000
     1.0000   1.0000   1.0000   1.0000   1.0000   1.0000   1.0000   1.0000
     1.0000   1.0000   1.0000   1.0000   1.0000   1.0000   1.0000   1.0000
     1.0000   1.0000   1.0000   1.0000   1.0000   1.0000   1.0000   1.0000
     1.0000   1.0000   1.0000   1.0000   1.0000   1.0000   1.0000   1.0000
     1.0000   1.0000   1.0000   1.0000   1.0000   1.0000   1.0000   1.0000
     1.0000   1.0000   1.0000   1.0000   1.0000   1.0000   1.0000   1.0000
     1.0000   1.0000   1.0000   1.0000   1.0000   1.0000   1.0000   1.0000
     1.0000   1.0000   1.0000   1.0000   1.0000   1.0000   1.0000   1.0000
     1.0000   1.0000   1.0000   1.0000   1.0000   1.0000   1.0000   1.0000
     0.0000   0.0000   0.0000   0.0000   0.0000   0.0000   0.0000   0.0000
     0.0000   0.0000

          k = 0.0000 0.0000 0.2220 ( 34593 PWs)   bands (ev):

   -84.2772 -84.2769 -84.2631 -84.2618 -50.5149 -50.5145 -50.3394 -50.3381
   -50.2501 -50.2489 -50.2261 -50.2249 -50.2021 -50.2019 -50.1341 -50.1340
   -44.8897 -17.1192 -16.9215 -16.8284 -16.1003 -15.8831 -15.7163 -15.5368
   -13.7270 -13.5252 -13.4649 -13.3862 -13.2416 -13.1780 -13.0838 -13.0625
   -12.9823 -12.9596 -12.8286 -12.7936  -3.8144  -3.3612  -3.1240  -2.8991
    -1.8334  -1.7026  -1.4788  -1.3647  -1.1760  -0.9408  -0.9045  -0.8277
    -0.7611  -0.6484  -0.5810  -0.4149   0.2132   0.3453   0.5289   0.7446
     0.8071   0.8652   0.9052   1.0599   1.2151   1.2912   1.3703   1.4612
     1.5541   1.7258   1.9590   1.9962   2.0472   2.1473   2.2867   2.3918
     2.4314   2.5697   2.6019   2.7437   2.9217   2.9455   2.9929   3.1250
     3.2761   3.3422   3.4943   3.5034   3.6960   3.7671   3.8040   3.8962
     3.9506   4.0986   4.1824   4.3098   4.3935   4.5861   4.6107   4.6531
     4.6687   4.8692   4.9039   5.0326   5.1255   5.2324   5.7017   5.7810
    10.0723  11.8359  11.9970  12.8323  13.1097  13.6986  13.9196  14.2420
    14.2914  14.5294

     occupation numbers 
     1.0000   1.0000   1.0000   1.0000   1.0000   1.0000   1.0000   1.0000
     1.0000   1.0000   1.0000   1.0000   1.0000   1.0000   1.0000   1.0000
     1.0000   1.0000   1.0000   1.0000   1.0000   1.0000   1.0000   1.0000
     1.0000   1.0000   1.0000   1.0000   1.0000   1.0000   1.0000   1.0000
     1.0000   1.0000   1.0000   1.0000   1.0000   1.0000   1.0000   1.0000
     1.0000   1.0000   1.0000   1.0000   1.0000   1.0000   1.0000   1.0000
     1.0000   1.0000   1.0000   1.0000   1.0000   1.0000   1.0000   1.0000
     1.0000   1.0000   1.0000   1.0000   1.0000   1.0000   1.0000   1.0000
     1.0000   1.0000   1.0000   1.0000   1.0000   1.0000   1.0000   1.0000
     1.0000   1.0000   1.0000   1.0000   1.0000   1.0000   1.0000   1.0000
     1.0000   1.0000   1.0000   1.0000   1.0000   1.0000   1.0000   1.0000
     1.0000   1.0000   1.0000   1.0000   1.0000   1.0000   1.0000   1.0000
     1.0000   1.0000   1.0000   1.0000   1.0000   1.0000   1.0000   1.0000
     0.0000   0.0000   0.0000   0.0000   0.0000   0.0000   0.0000   0.0000
     0.0000   0.0000

          k = 0.0000 0.0000 0.4441 ( 34664 PWs)   bands (ev):

   -84.2772 -84.2769 -84.2631 -84.2618 -50.5149 -50.5145 -50.3394 -50.3381
   -50.2501 -50.2489 -50.2261 -50.2249 -50.2021 -50.2019 -50.1341 -50.1340
   -44.8897 -17.1202 -16.9215 -16.8289 -16.0547 -15.8760 -15.6950 -15.5497
   -13.7269 -13.5605 -13.4446 -13.3735 -13.2695 -13.1985 -13.0968 -13.0741
   -12.9997 -12.9716 -12.8529 -12.7892  -3.7219  -3.3293  -3.1372  -2.8875
    -1.8005  -1.6827  -1.4466  -1.3166  -1.1582  -0.9724  -0.8785  -0.7955
    -0.6700  -0.6656  -0.6077  -0.4450   0.2690   0.3552   0.5559   0.6575
     0.8195   0.8617   0.9378   1.1180   1.2298   1.3051   1.3244   1.4680
     1.5314   1.7629   1.8883   2.0033   2.0674   2.1822   2.2503   2.3459
     2.4358   2.5671   2.5963   2.7267   2.7870   2.9126   2.9612   3.1102
     3.2395   3.3296   3.3669   3.4999   3.5841   3.8074   3.8337   3.8573
     3.9957   4.1271   4.1660   4.2912   4.3892   4.5681   4.5783   4.6545
     4.6612   4.8291   4.8941   5.0784   5.1487   5.2566   5.6987   5.7835
    10.4525  11.9670  12.1471  12.8655  13.2712  13.4545  13.9132  14.1829
    14.2189  14.4103

     occupation numbers 
     1.0000   1.0000   1.0000   1.0000   1.0000   1.0000   1.0000   1.0000
     1.0000   1.0000   1.0000   1.0000   1.0000   1.0000   1.0000   1.0000
     1.0000   1.0000   1.0000   1.0000   1.0000   1.0000   1.0000   1.0000
     1.0000   1.0000   1.0000   1.0000   1.0000   1.0000   1.0000   1.0000
     1.0000   1.0000   1.0000   1.0000   1.0000   1.0000   1.0000   1.0000
     1.0000   1.0000   1.0000   1.0000   1.0000   1.0000   1.0000   1.0000
     1.0000   1.0000   1.0000   1.0000   1.0000   1.0000   1.0000   1.0000
     1.0000   1.0000   1.0000   1.0000   1.0000   1.0000   1.0000   1.0000
     1.0000   1.0000   1.0000   1.0000   1.0000   1.0000   1.0000   1.0000
     1.0000   1.0000   1.0000   1.0000   1.0000   1.0000   1.0000   1.0000
     1.0000   1.0000   1.0000   1.0000   1.0000   1.0000   1.0000   1.0000
     1.0000   1.0000   1.0000   1.0000   1.0000   1.0000   1.0000   1.0000
     1.0000   1.0000   1.0000   1.0000   1.0000   1.0000   1.0000   1.0000
     0.0000   0.0000   0.0000   0.0000   0.0000   0.0000   0.0000   0.0000
     0.0000   0.0000

          k = 0.0000 0.0000 0.6661 ( 34722 PWs)   bands (ev):

   -84.2772 -84.2769 -84.2631 -84.2618 -50.5149 -50.5145 -50.3394 -50.3381
   -50.2501 -50.2489 -50.2261 -50.2249 -50.2021 -50.2019 -50.1341 -50.1340
   -44.8897 -17.1213 -16.9215 -16.8294 -15.9919 -15.8732 -15.6684 -15.5714
   -13.7273 -13.5910 -13.4284 -13.3724 -13.2976 -13.2163 -13.1068 -13.0820
   -13.0217 -12.9927 -12.8730 -12.7905  -3.6076  -3.2857  -3.1410  -2.9088
    -1.7966  -1.6193  -1.3603  -1.2934  -1.1408  -1.0155  -0.8704  -0.7827
    -0.6514  -0.6108  -0.5913  -0.5055   0.2900   0.3849   0.6038   0.6910
     0.8098   0.8985   0.9969   1.1965   1.2460   1.3006   1.3404   1.4433
     1.5775   1.7736   1.7946   1.9286   2.0752   2.0971   2.1750   2.3120
     2.4169   2.4767   2.6060   2.6763   2.7577   2.8609   2.9500   3.0429
     3.1784   3.2229   3.3133   3.3958   3.5910   3.8505   3.8948   3.9198
     4.0173   4.1190   4.1736   4.2837   4.4180   4.5326   4.5748   4.6270
     4.6406   4.7688   4.8837   5.1224   5.1741   5.2848   5.7093   5.7760
    10.9652  12.1160  12.2945  12.8568  13.1278  13.5385  13.8581  14.0888
    14.1572  14.3282

     occupation numbers 
     1.0000   1.0000   1.0000   1.0000   1.0000   1.0000   1.0000   1.0000
     1.0000   1.0000   1.0000   1.0000   1.0000   1.0000   1.0000   1.0000
     1.0000   1.0000   1.0000   1.0000   1.0000   1.0000   1.0000   1.0000
     1.0000   1.0000   1.0000   1.0000   1.0000   1.0000   1.0000   1.0000
     1.0000   1.0000   1.0000   1.0000   1.0000   1.0000   1.0000   1.0000
     1.0000   1.0000   1.0000   1.0000   1.0000   1.0000   1.0000   1.0000
     1.0000   1.0000   1.0000   1.0000   1.0000   1.0000   1.0000   1.0000
     1.0000   1.0000   1.0000   1.0000   1.0000   1.0000   1.0000   1.0000
     1.0000   1.0000   1.0000   1.0000   1.0000   1.0000   1.0000   1.0000
     1.0000   1.0000   1.0000   1.0000   1.0000   1.0000   1.0000   1.0000
     1.0000   1.0000   1.0000   1.0000   1.0000   1.0000   1.0000   1.0000
     1.0000   1.0000   1.0000   1.0000   1.0000   1.0000   1.0000   1.0000
     1.0000   1.0000   1.0000   1.0000   1.0000   1.0000   1.0000   1.0000
     0.0000   0.0000   0.0000   0.0000   0.0000   0.0000   0.0000   0.0000
     0.0000   0.0000

          k = 0.0000 0.0000 0.8882 ( 34692 PWs)   bands (ev):

   -84.2772 -84.2769 -84.2631 -84.2618 -50.5149 -50.5145 -50.3394 -50.3381
   -50.2501 -50.2489 -50.2261 -50.2249 -50.2021 -50.2019 -50.1341 -50.1340
   -44.8897 -17.1220 -16.9214 -16.8297 -15.9313 -15.8867 -15.6467 -15.5940
   -13.7278 -13.6086 -13.4122 -13.3913 -13.3101 -13.2208 -13.1087 -13.0945
   -13.0271 -13.0139 -12.8837 -12.7940  -3.5256  -3.2512  -3.1337  -2.9497
    -1.7837  -1.5847  -1.2852  -1.2720  -1.1395  -1.0552  -0.8562  -0.8250
    -0.6261  -0.5931  -0.5722  -0.5283   0.2890   0.4191   0.6158   0.6894
     0.9331   0.9903   1.1053   1.1836   1.2532   1.3118   1.3967   1.4272
     1.6110   1.6928   1.7540   1.8277   1.9426   1.9868   2.1271   2.3449
     2.4083   2.4509   2.5777   2.6497   2.7340   2.8126   2.8902   3.0049
     3.1110   3.2421   3.3006   3.3425   3.6042   3.8694   3.9336   3.9712
     4.0380   4.1148   4.2022   4.2652   4.4757   4.5111   4.5799   4.5813
     4.6378   4.6822   4.8910   5.1364   5.1992   5.3050   5.7304   5.7579
    11.4472  12.1952  12.3513  12.6029  13.0829  13.7541  13.8125  14.0399
    14.1350  14.2486

     occupation numbers 
     1.0000   1.0000   1.0000   1.0000   1.0000   1.0000   1.0000   1.0000
     1.0000   1.0000   1.0000   1.0000   1.0000   1.0000   1.0000   1.0000
     1.0000   1.0000   1.0000   1.0000   1.0000   1.0000   1.0000   1.0000
     1.0000   1.0000   1.0000   1.0000   1.0000   1.0000   1.0000   1.0000
     1.0000   1.0000   1.0000   1.0000   1.0000   1.0000   1.0000   1.0000
     1.0000   1.0000   1.0000   1.0000   1.0000   1.0000   1.0000   1.0000
     1.0000   1.0000   1.0000   1.0000   1.0000   1.0000   1.0000   1.0000
     1.0000   1.0000   1.0000   1.0000   1.0000   1.0000   1.0000   1.0000
     1.0000   1.0000   1.0000   1.0000   1.0000   1.0000   1.0000   1.0000
     1.0000   1.0000   1.0000   1.0000   1.0000   1.0000   1.0000   1.0000
     1.0000   1.0000   1.0000   1.0000   1.0000   1.0000   1.0000   1.0000
     1.0000   1.0000   1.0000   1.0000   1.0000   1.0000   1.0000   1.0000
     1.0000   1.0000   1.0000   1.0000   1.0000   1.0000   1.0000   1.0000
     0.0000   0.0000   0.0000   0.0000   0.0000   0.0000   0.0000   0.0000
     0.0000   0.0000

          k = 0.0000 0.2271 0.0000 ( 34607 PWs)   bands (ev):

   -84.2772 -84.2769 -84.2631 -84.2618 -50.5149 -50.5145 -50.3394 -50.3381
   -50.2501 -50.2489 -50.2261 -50.2249 -50.2021 -50.2019 -50.1341 -50.1340
   -44.8897 -17.1257 -16.9219 -16.8282 -16.0877 -15.8741 -15.7273 -15.5565
   -13.7373 -13.5102 -13.4906 -13.3814 -13.2249 -13.1743 -13.0836 -13.0454
   -12.9813 -12.9617 -12.8151 -12.7973  -3.8117  -3.3381  -3.1291  -2.9035
    -1.8518  -1.6642  -1.4614  -1.3954  -1.1858  -0.9393  -0.8923  -0.8133
    -0.8030  -0.6275  -0.5852  -0.3836   0.1770   0.3225   0.5262   0.7159
     0.7903   0.8175   0.8977   1.0604   1.1576   1.2747   1.4156   1.4625
     1.6253   1.6973   1.9628   2.0033   2.0545   2.1072   2.2474   2.4064
     2.4408   2.4896   2.6670   2.6991   2.8381   2.9510   3.0849   3.1616
     3.2885   3.3228   3.4575   3.5307   3.6634   3.7276   3.8481   3.9301
     3.9904   4.0624   4.1684   4.2915   4.4819   4.5322   4.6124   4.6439
     4.6793   4.7627   4.9216   5.0148   5.2200   5.3806   5.7233   5.7813
    10.0850  11.8527  12.0260  12.7435  13.0974  13.6677  13.9127  14.1332
    14.4053  14.5577

     occupation numbers 
     1.0000   1.0000   1.0000   1.0000   1.0000   1.0000   1.0000   1.0000
     1.0000   1.0000   1.0000   1.0000   1.0000   1.0000   1.0000   1.0000
     1.0000   1.0000   1.0000   1.0000   1.0000   1.0000   1.0000   1.0000
     1.0000   1.0000   1.0000   1.0000   1.0000   1.0000   1.0000   1.0000
     1.0000   1.0000   1.0000   1.0000   1.0000   1.0000   1.0000   1.0000
     1.0000   1.0000   1.0000   1.0000   1.0000   1.0000   1.0000   1.0000
     1.0000   1.0000   1.0000   1.0000   1.0000   1.0000   1.0000   1.0000
     1.0000   1.0000   1.0000   1.0000   1.0000   1.0000   1.0000   1.0000
     1.0000   1.0000   1.0000   1.0000   1.0000   1.0000   1.0000   1.0000
     1.0000   1.0000   1.0000   1.0000   1.0000   1.0000   1.0000   1.0000
     1.0000   1.0000   1.0000   1.0000   1.0000   1.0000   1.0000   1.0000
     1.0000   1.0000   1.0000   1.0000   1.0000   1.0000   1.0000   1.0000
     1.0000   1.0000   1.0000   1.0000   1.0000   1.0000   1.0000   1.0000
     0.0000   0.0000   0.0000   0.0000   0.0000   0.0000   0.0000   0.0000
     0.0000   0.0000

          k = 0.0000 0.2271 0.2220 ( 34613 PWs)   bands (ev):

   -84.2772 -84.2769 -84.2631 -84.2618 -50.5149 -50.5145 -50.3394 -50.3381
   -50.2501 -50.2489 -50.2261 -50.2249 -50.2021 -50.2019 -50.1341 -50.1340
   -44.8897 -17.1276 -16.9220 -16.8284 -16.0662 -15.8645 -15.7222 -15.5666
   -13.7360 -13.5403 -13.4745 -13.3619 -13.2471 -13.1936 -13.0883 -13.0465
   -12.9727 -12.9708 -12.8255 -12.7953  -3.7838  -3.3332  -3.1309  -2.8751
    -1.8289  -1.6759  -1.4890  -1.3225  -1.1682  -0.9086  -0.8900  -0.8581
    -0.7987  -0.6416  -0.5843  -0.3664   0.2267   0.3054   0.5318   0.7290
     0.7637   0.8437   0.9176   1.0648   1.1465   1.2554   1.3897   1.4867
     1.5221   1.6647   1.9296   1.9989   2.0491   2.1592   2.3292   2.4095
     2.4296   2.4713   2.6129   2.7315   2.8888   2.9503   3.0240   3.1765
     3.2958   3.3552   3.4157   3.5035   3.6455   3.7399   3.8068   3.8954
     3.9382   4.0686   4.1627   4.2719   4.4730   4.5407   4.6135   4.6478
     4.6880   4.7647   4.9249   5.0515   5.2156   5.3812   5.7032   5.7931
    10.2210  11.9082  12.0843  12.7337  13.1973  13.6417  13.8798  14.1723
    14.3792  14.4801

     occupation numbers 
     1.0000   1.0000   1.0000   1.0000   1.0000   1.0000   1.0000   1.0000
     1.0000   1.0000   1.0000   1.0000   1.0000   1.0000   1.0000   1.0000
     1.0000   1.0000   1.0000   1.0000   1.0000   1.0000   1.0000   1.0000
     1.0000   1.0000   1.0000   1.0000   1.0000   1.0000   1.0000   1.0000
     1.0000   1.0000   1.0000   1.0000   1.0000   1.0000   1.0000   1.0000
     1.0000   1.0000   1.0000   1.0000   1.0000   1.0000   1.0000   1.0000
     1.0000   1.0000   1.0000   1.0000   1.0000   1.0000   1.0000   1.0000
     1.0000   1.0000   1.0000   1.0000   1.0000   1.0000   1.0000   1.0000
     1.0000   1.0000   1.0000   1.0000   1.0000   1.0000   1.0000   1.0000
     1.0000   1.0000   1.0000   1.0000   1.0000   1.0000   1.0000   1.0000
     1.0000   1.0000   1.0000   1.0000   1.0000   1.0000   1.0000   1.0000
     1.0000   1.0000   1.0000   1.0000   1.0000   1.0000   1.0000   1.0000
     1.0000   1.0000   1.0000   1.0000   1.0000   1.0000   1.0000   1.0000
     0.0000   0.0000   0.0000   0.0000   0.0000   0.0000   0.0000   0.0000
     0.0000   0.0000

          k = 0.0000 0.2271 0.4441 ( 34660 PWs)   bands (ev):

   -84.2772 -84.2769 -84.2631 -84.2618 -50.5149 -50.5145 -50.3394 -50.3381
   -50.2501 -50.2489 -50.2261 -50.2249 -50.2021 -50.2019 -50.1341 -50.1340
   -44.8897 -17.1286 -16.9219 -16.8289 -16.0197 -15.8522 -15.7039 -15.5820
   -13.7320 -13.5732 -13.4595 -13.3404 -13.2794 -13.2252 -13.1046 -13.0617
   -12.9877 -12.9747 -12.8487 -12.7908  -3.6977  -3.3082  -3.1319  -2.8482
    -1.7952  -1.6823  -1.4357  -1.2767  -1.1418  -0.9349  -0.9045  -0.8144
    -0.7256  -0.6513  -0.5932  -0.3989   0.2589   0.3277   0.5590   0.6898
     0.7724   0.9091   0.9183   1.0708   1.2070   1.2286   1.3381   1.4020
     1.5561   1.6769   1.8498   2.0076   2.0199   2.2231   2.3035   2.3538
     2.4028   2.5535   2.5677   2.7692   2.7971   2.9582   3.0051   3.1136
     3.2535   3.2903   3.3926   3.4732   3.5438   3.7518   3.7836   3.8380
     3.9664   4.0906   4.1459   4.2663   4.4705   4.5080   4.5863   4.6536
     4.7172   4.7712   4.9176   5.1012   5.2336   5.3669   5.6959   5.8015
    10.5835  12.0417  12.2207  12.7863  13.3683  13.4733  13.8537  14.1913
    14.2753  14.3871

     occupation numbers 
     1.0000   1.0000   1.0000   1.0000   1.0000   1.0000   1.0000   1.0000
     1.0000   1.0000   1.0000   1.0000   1.0000   1.0000   1.0000   1.0000
     1.0000   1.0000   1.0000   1.0000   1.0000   1.0000   1.0000   1.0000
     1.0000   1.0000   1.0000   1.0000   1.0000   1.0000   1.0000   1.0000
     1.0000   1.0000   1.0000   1.0000   1.0000   1.0000   1.0000   1.0000
     1.0000   1.0000   1.0000   1.0000   1.0000   1.0000   1.0000   1.0000
     1.0000   1.0000   1.0000   1.0000   1.0000   1.0000   1.0000   1.0000
     1.0000   1.0000   1.0000   1.0000   1.0000   1.0000   1.0000   1.0000
     1.0000   1.0000   1.0000   1.0000   1.0000   1.0000   1.0000   1.0000
     1.0000   1.0000   1.0000   1.0000   1.0000   1.0000   1.0000   1.0000
     1.0000   1.0000   1.0000   1.0000   1.0000   1.0000   1.0000   1.0000
     1.0000   1.0000   1.0000   1.0000   1.0000   1.0000   1.0000   1.0000
     1.0000   1.0000   1.0000   1.0000   1.0000   1.0000   1.0000   1.0000
     0.0000   0.0000   0.0000   0.0000   0.0000   0.0000   0.0000   0.0000
     0.0000   0.0000

          k = 0.0000 0.2271 0.6661 ( 34677 PWs)   bands (ev):

   -84.2772 -84.2769 -84.2631 -84.2618 -50.5149 -50.5145 -50.3394 -50.3381
   -50.2501 -50.2489 -50.2261 -50.2249 -50.2021 -50.2019 -50.1341 -50.1340
   -44.8897 -17.1283 -16.9218 -16.8293 -15.9615 -15.8476 -15.6790 -15.6003
   -13.7280 -13.6000 -13.4457 -13.3359 -13.3117 -13.2427 -13.1201 -13.0819
   -13.0070 -12.9886 -12.8687 -12.7905  -3.5851  -3.2703  -3.1286  -2.8577
    -1.7949  -1.6270  -1.3495  -1.2507  -1.1263  -0.9943  -0.8995  -0.7819
    -0.6513  -0.6256  -0.5866  -0.4802   0.2500   0.3779   0.5826   0.7385
     0.8278   0.9165   0.9477   1.1298   1.2230   1.2366   1.3389   1.4195
     1.5819   1.6793   1.7687   1.9234   2.0510   2.1456   2.1815   2.3360
     2.3762   2.5047   2.6153   2.6345   2.8410   2.8733   3.0166   3.0735
     3.1222   3.2005   3.3486   3.4027   3.5200   3.7771   3.8212   3.8628
     4.0170   4.1014   4.1281   4.3369   4.4378   4.4754   4.5487   4.6414
     4.7115   4.7818   4.8961   5.1535   5.2572   5.3519   5.7153   5.7955
    11.0692  12.1887  12.3545  12.8862  13.0874  13.6346  13.8695  14.0390
    14.1845  14.3616

     occupation numbers 
     1.0000   1.0000   1.0000   1.0000   1.0000   1.0000   1.0000   1.0000
     1.0000   1.0000   1.0000   1.0000   1.0000   1.0000   1.0000   1.0000
     1.0000   1.0000   1.0000   1.0000   1.0000   1.0000   1.0000   1.0000
     1.0000   1.0000   1.0000   1.0000   1.0000   1.0000   1.0000   1.0000
     1.0000   1.0000   1.0000   1.0000   1.0000   1.0000   1.0000   1.0000
     1.0000   1.0000   1.0000   1.0000   1.0000   1.0000   1.0000   1.0000
     1.0000   1.0000   1.0000   1.0000   1.0000   1.0000   1.0000   1.0000
     1.0000   1.0000   1.0000   1.0000   1.0000   1.0000   1.0000   1.0000
     1.0000   1.0000   1.0000   1.0000   1.0000   1.0000   1.0000   1.0000
     1.0000   1.0000   1.0000   1.0000   1.0000   1.0000   1.0000   1.0000
     1.0000   1.0000   1.0000   1.0000   1.0000   1.0000   1.0000   1.0000
     1.0000   1.0000   1.0000   1.0000   1.0000   1.0000   1.0000   1.0000
     1.0000   1.0000   1.0000   1.0000   1.0000   1.0000   1.0000   1.0000
     0.0000   0.0000   0.0000   0.0000   0.0000   0.0000   0.0000   0.0000
     0.0000   0.0000

          k = 0.0000 0.2271 0.8882 ( 34672 PWs)   bands (ev):

   -84.2772 -84.2769 -84.2631 -84.2618 -50.5149 -50.5145 -50.3394 -50.3381
   -50.2501 -50.2489 -50.2261 -50.2249 -50.2021 -50.2019 -50.1341 -50.1340
   -44.8897 -17.1268 -16.9217 -16.8296 -15.9107 -15.8649 -15.6569 -15.6114
   -13.7275 -13.6119 -13.4309 -13.3647 -13.3196 -13.2373 -13.1265 -13.0977
   -13.0290 -12.9973 -12.8801 -12.7917  -3.4929  -3.2309  -3.1289  -2.9074
    -1.7779  -1.5873  -1.2852  -1.2325  -1.1313  -1.0372  -0.8835  -0.8099
    -0.6246  -0.6075  -0.5656  -0.5009   0.2367   0.4024   0.5933   0.7384
     0.9078   0.9712   1.0421   1.1198   1.2327   1.3446   1.3603   1.4397
     1.5988   1.6640   1.7138   1.8630   1.9507   2.0130   2.1340   2.3162
     2.4214   2.4786   2.5540   2.5909   2.7612   2.8517   2.9016   3.0497
     3.0985   3.2225   3.2872   3.3440   3.5581   3.8152   3.8739   3.9004
     4.0511   4.0638   4.1778   4.3343   4.4369   4.4756   4.5293   4.6298
     4.6756   4.7722   4.8855   5.1875   5.2490   5.3689   5.7455   5.7770
    11.5122  12.2764  12.4085  12.7055  13.0165  13.7838  13.8745  13.9661
    14.1634  14.3407

     occupation numbers 
     1.0000   1.0000   1.0000   1.0000   1.0000   1.0000   1.0000   1.0000
     1.0000   1.0000   1.0000   1.0000   1.0000   1.0000   1.0000   1.0000
     1.0000   1.0000   1.0000   1.0000   1.0000   1.0000   1.0000   1.0000
     1.0000   1.0000   1.0000   1.0000   1.0000   1.0000   1.0000   1.0000
     1.0000   1.0000   1.0000   1.0000   1.0000   1.0000   1.0000   1.0000
     1.0000   1.0000   1.0000   1.0000   1.0000   1.0000   1.0000   1.0000
     1.0000   1.0000   1.0000   1.0000   1.0000   1.0000   1.0000   1.0000
     1.0000   1.0000   1.0000   1.0000   1.0000   1.0000   1.0000   1.0000
     1.0000   1.0000   1.0000   1.0000   1.0000   1.0000   1.0000   1.0000
     1.0000   1.0000   1.0000   1.0000   1.0000   1.0000   1.0000   1.0000
     1.0000   1.0000   1.0000   1.0000   1.0000   1.0000   1.0000   1.0000
     1.0000   1.0000   1.0000   1.0000   1.0000   1.0000   1.0000   1.0000
     1.0000   1.0000   1.0000   1.0000   1.0000   1.0000   1.0000   1.0000
     0.0000   0.0000   0.0000   0.0000   0.0000   0.0000   0.0000   0.0000
     0.0000   0.0000

          k = 0.0000 0.4542 0.0000 ( 34657 PWs)   bands (ev):

   -84.2772 -84.2769 -84.2631 -84.2618 -50.5149 -50.5145 -50.3394 -50.3381
   -50.2501 -50.2489 -50.2261 -50.2249 -50.2021 -50.2019 -50.1341 -50.1340
   -44.8897 -17.1406 -16.9226 -16.8282 -16.0109 -15.8426 -15.7379 -15.6211
   -13.7596 -13.5347 -13.4948 -13.3689 -13.2145 -13.1690 -13.1017 -13.0368
   -12.9910 -12.9661 -12.8154 -12.7932  -3.7230  -3.2595  -3.1599  -2.8923
    -1.8136  -1.5861  -1.4722  -1.3506  -1.1860  -0.9578  -0.8732  -0.7824
    -0.7333  -0.6494  -0.5663  -0.3572   0.1316   0.2872   0.4957   0.5747
     0.7226   0.8054   0.8236   1.0354   1.1080   1.2261   1.4352   1.5111
     1.6763   1.7444   1.9054   1.9741   2.0727   2.1489   2.1750   2.3742
     2.4475   2.5039   2.6259   2.7092   2.7471   2.9250   3.0396   3.2017
     3.2369   3.3456   3.4067   3.5019   3.5736   3.6870   3.8652   3.9353
     3.9876   4.0758   4.1897   4.2234   4.3971   4.5848   4.6093   4.6137
     4.6745   4.7198   4.9173   5.0149   5.4416   5.5614   5.7703   5.7999
    10.5065  12.0177  12.2043  12.5155  13.0658  13.6047  13.8367  14.0800
    14.1719  14.4576

     occupation numbers 
     1.0000   1.0000   1.0000   1.0000   1.0000   1.0000   1.0000   1.0000
     1.0000   1.0000   1.0000   1.0000   1.0000   1.0000   1.0000   1.0000
     1.0000   1.0000   1.0000   1.0000   1.0000   1.0000   1.0000   1.0000
     1.0000   1.0000   1.0000   1.0000   1.0000   1.0000   1.0000   1.0000
     1.0000   1.0000   1.0000   1.0000   1.0000   1.0000   1.0000   1.0000
     1.0000   1.0000   1.0000   1.0000   1.0000   1.0000   1.0000   1.0000
     1.0000   1.0000   1.0000   1.0000   1.0000   1.0000   1.0000   1.0000
     1.0000   1.0000   1.0000   1.0000   1.0000   1.0000   1.0000   1.0000
     1.0000   1.0000   1.0000   1.0000   1.0000   1.0000   1.0000   1.0000
     1.0000   1.0000   1.0000   1.0000   1.0000   1.0000   1.0000   1.0000
     1.0000   1.0000   1.0000   1.0000   1.0000   1.0000   1.0000   1.0000
     1.0000   1.0000   1.0000   1.0000   1.0000   1.0000   1.0000   1.0000
     1.0000   1.0000   1.0000   1.0000   1.0000   1.0000   1.0000   1.0000
     0.0000   0.0000   0.0000   0.0000   0.0000   0.0000   0.0000   0.0000
     0.0000   0.0000

          k = 0.0000 0.4542 0.2220 ( 34661 PWs)   bands (ev):

   -84.2772 -84.2769 -84.2631 -84.2618 -50.5149 -50.5145 -50.3394 -50.3381
   -50.2501 -50.2488 -50.2261 -50.2249 -50.2021 -50.2019 -50.1341 -50.1340
   -44.8897 -17.1421 -16.9226 -16.8283 -15.9893 -15.8268 -15.7345 -15.6359
   -13.7560 -13.5517 -13.4904 -13.3490 -13.2514 -13.1859 -13.0960 -13.0431
   -12.9912 -12.9656 -12.8231 -12.7924  -3.6995  -3.2545  -3.1536  -2.8598
    -1.7929  -1.5999  -1.4843  -1.2872  -1.1738  -0.9495  -0.8551  -0.8081
    -0.7647  -0.6238  -0.5917  -0.3336   0.1793   0.2448   0.5088   0.5838
     0.7611   0.8075   0.8655   1.0148   1.1192   1.1994   1.4397   1.4895
     1.5349   1.6663   1.9004   1.9459   2.0512   2.2245   2.2377   2.3791
     2.4285   2.5186   2.5942   2.7632   2.8420   2.9271   3.0339   3.1969
     3.2323   3.3233   3.3588   3.4954   3.5477   3.6791   3.8134   3.9263
     3.9537   4.0397   4.1524   4.2167   4.4472   4.5407   4.5713   4.6512
     4.6815   4.7333   4.9540   5.0463   5.4449   5.5684   5.7153   5.8322
[...]
     atom    6 type  4   force =     0.08424877    0.02583058    0.00530858
     atom    7 type  4   force =    -0.14799034    0.04215180   -0.04516906
     atom    8 type  4   force =    -0.08424877   -0.02583058   -0.00530858
     atom    9 type  4   force =     0.14799034   -0.04215180    0.04516906
     atom   10 type  3   force =    -0.48845954   -0.26204361   -1.09104504
     atom   11 type  3   force =    -0.05997592    0.23033500   -1.43287950
     atom   12 type  3   force =     0.48845954    0.26204361    1.09104504
     atom   13 type  3   force =     0.05997592   -0.23033500    1.43287950
     atom   14 type  3   force =     1.35442746   -0.24695305   -0.66406180
     atom   15 type  3   force =    -1.28492841    0.32121768   -0.17174690
     atom   16 type  3   force =    -1.35442746    0.24695305    0.66406180
     atom   17 type  3   force =     1.28492841   -0.32121768    0.17174690
     atom   18 type  3   force =     0.01064024   -1.38314302    0.78064616
     atom   19 type  3   force =     0.57511037    0.72856702    0.92467875
     atom   20 type  3   force =     0.04775607   -1.65610297   -0.96766912
     atom   21 type  3   force =    -0.06883690    1.03860928   -0.56533468
     atom   22 type  3   force =    -0.01064024    1.38314302   -0.78064616
     atom   23 type  3   force =    -0.57511037   -0.72856702   -0.92467875
     atom   24 type  3   force =    -0.04775607    1.65610297    0.96766912
     atom   25 type  3   force =     0.06883690   -1.03860928    0.56533468
     The ionic contribution  to forces
     atom    1 type  2   force =     0.00054564    0.00048050    0.00020611
     atom    2 type  1   force =     8.49182551    5.72294783   -3.29443395
     atom    3 type  1   force =     5.79259845   -9.69935280   -3.00906489
     atom    4 type  1   force =    -8.49222542   -5.72288511    3.29428218
     atom    5 type  1   force =    -5.79301873    9.69898374    3.00914517
     atom    6 type  4   force =    -0.55591085    2.01925751   -2.46554478
     atom    7 type  4   force =     2.05302867   -0.90770725    1.36202358
     atom    8 type  4   force =     0.55597586   -2.01924563    2.46536311
     atom    9 type  4   force =    -2.05314274    0.90769438   -1.36191016
     atom   10 type  3   force =     0.11773469    6.75101334   -0.10389937
     atom   11 type  3   force =     7.18438413   -4.50119422    1.93900648
     atom   12 type  3   force =    -0.11741515   -6.75078493    0.10429772
     atom   13 type  3   force =    -7.18442163    4.50114421   -1.93918962
     atom   14 type  3   force =    -0.27395232    1.78277433    8.41017024
     atom   15 type  3   force =     0.44964440   -3.75997383    5.43747194
     atom   16 type  3   force =     0.27376163   -1.78277043   -8.41013184
     atom   17 type  3   force =    -0.44921893    3.75964841   -5.43785959
     atom   18 type  3   force =    -6.45332838    9.01056799    1.18304711
     atom   19 type  3   force =     2.11855849   -1.67520303   -3.58490313
     atom   20 type  3   force =     4.13909903    6.34386373    9.21681614
     atom   21 type  3   force =    -8.89484014   -0.93814923   -0.66154099
     atom   22 type  3   force =     6.45341890   -9.01059083   -1.18300736
     atom   23 type  3   force =    -2.11878769    1.67515742    3.58488840
     atom   24 type  3   force =    -4.13900052   -6.34386434   -9.21679461
     atom   25 type  3   force =     8.89468710    0.93818821    0.66156213
     The local contribution  to forces
     atom    1 type  2   force =     0.00000000    0.00000000    0.00000000
     atom    2 type  1   force =    -8.59001699   -5.62691713    3.48325200
     atom    3 type  1   force =    -5.74817594    9.79255078    2.89200783
     atom    4 type  1   force =     8.55452462    5.61613485   -3.48053912
     atom    5 type  1   force =     5.71257093   -9.80471613   -2.89156784
     atom    6 type  4   force =     0.57126213   -2.07717150    2.43372084
     atom    7 type  4   force =    -2.03601023    0.88662169   -1.30702573
     atom    8 type  4   force =    -0.57123325    2.07683779   -2.43396282
     atom    9 type  4   force =     2.03627516   -0.88688198    1.30729618
     atom   10 type  3   force =     0.37917687   -6.48394747    1.19471957
     atom   11 type  3   force =    -7.12184175    4.26484481   -0.51455121
     atom   12 type  3   force =    -0.38670281    6.48142850   -1.19241775
     atom   13 type  3   force =     7.11393608   -4.26808058    0.51309449
     atom   14 type  3   force =    -1.21421221   -1.52170839   -7.72732180
     atom   15 type  3   force =     0.95208542    3.41205703   -5.28351391
     atom   16 type  3   force =     1.20799536    1.51891920    7.72820934
     atom   17 type  3   force =    -0.95777103   -3.41457528    5.28333114
     atom   18 type  3   force =     6.42897117   -7.62928377   -1.95621271
     atom   19 type  3   force =    -2.71244774    0.94271987    2.65742142
     atom   20 type  3   force =    -4.18023063   -4.70799029   -8.24654691
     atom   21 type  3   force =     8.95579374   -0.09711691    1.21622698
     atom   22 type  3   force =    -6.43637528    7.62670213    1.95473076
     atom   23 type  3   force =     2.70391798   -0.94441863   -2.65700356
     atom   24 type  3   force =     4.17207361    4.70563051    8.24737978
     atom   25 type  3   force =    -8.96411308    0.09475294   -1.21515183
     The core correction contribution to forces
     atom    1 type  2   force =     0.00000000    0.00000000    0.00000000
     atom    2 type  1   force =    -0.00192957    0.00110734    0.00213640
     atom    3 type  1   force =     0.00162323    0.00042031    0.00046910
     atom    4 type  1   force =     0.00310740   -0.00071624   -0.00217311
     atom    5 type  1   force =    -0.00041102   -0.00004875   -0.00046312
     atom    6 type  4   force =    -0.00730569   -0.00011955    0.00145332
     atom    7 type  4   force =     0.01259703   -0.00338134    0.00182459
     atom    8 type  4   force =     0.00733371    0.00012526   -0.00145147
     atom    9 type  4   force =    -0.01256511    0.00338580   -0.00182803
     atom   10 type  3   force =     0.00364388    0.00218547    0.00924274
     atom   11 type  3   force =     0.00121491   -0.00224460    0.01229532
     atom   12 type  3   force =    -0.00364904   -0.00218720   -0.00924534
     atom   13 type  3   force =    -0.00122041    0.00224241   -0.01229374
     atom   14 type  3   force =    -0.00950725    0.00198467    0.00597018
     atom   15 type  3   force =     0.00890892   -0.00257777    0.00216358
     atom   16 type  3   force =     0.00949773   -0.00198608   -0.00597067
     atom   17 type  3   force =    -0.00891790    0.00257673   -0.00216219
     atom   18 type  3   force =    -0.00060636    0.01229235   -0.00657929
     atom   19 type  3   force =    -0.00467242   -0.00586683   -0.00813114
     atom   20 type  3   force =    -0.00031586    0.01443327    0.00892055
     atom   21 type  3   force =     0.00041510   -0.00890098    0.00513820
     atom   22 type  3   force =     0.00059919   -0.01229562    0.00658233
     atom   23 type  3   force =     0.00466641    0.00586260    0.00812727
     atom   24 type  3   force =     0.00031043   -0.01443449   -0.00892189
     atom   25 type  3   force =    -0.00042003    0.00889942   -0.00513994
     The Hubbard contrib.    to forces
     atom    1 type  2   force =     0.00000000    0.00000000    0.00000000
     atom    2 type  1   force =     0.00000000    0.00000000    0.00000000
     atom    3 type  1   force =     0.00000000    0.00000000    0.00000000
     atom    4 type  1   force =     0.00000000    0.00000000    0.00000000
     atom    5 type  1   force =     0.00000000    0.00000000    0.00000000
     atom    6 type  4   force =     0.00000000    0.00000000    0.00000000
     atom    7 type  4   force =     0.00000000    0.00000000    0.00000000
     atom    8 type  4   force =     0.00000000    0.00000000    0.00000000
     atom    9 type  4   force =     0.00000000    0.00000000    0.00000000
     atom   10 type  3   force =     0.00000000    0.00000000    0.00000000
     atom   11 type  3   force =     0.00000000    0.00000000    0.00000000
     atom   12 type  3   force =     0.00000000    0.00000000    0.00000000
     atom   13 type  3   force =     0.00000000    0.00000000    0.00000000
     atom   14 type  3   force =     0.00000000    0.00000000    0.00000000
     atom   15 type  3   force =     0.00000000    0.00000000    0.00000000
     atom   16 type  3   force =     0.00000000    0.00000000    0.00000000
     atom   17 type  3   force =     0.00000000    0.00000000    0.00000000
     atom   18 type  3   force =     0.00000000    0.00000000    0.00000000
     atom   19 type  3   force =     0.00000000    0.00000000    0.00000000
     atom   20 type  3   force =     0.00000000    0.00000000    0.00000000
     atom   21 type  3   force =     0.00000000    0.00000000    0.00000000
     atom   22 type  3   force =     0.00000000    0.00000000    0.00000000
     atom   23 type  3   force =     0.00000000    0.00000000    0.00000000
     atom   24 type  3   force =     0.00000000    0.00000000    0.00000000
     atom   25 type  3   force =     0.00000000    0.00000000    0.00000000
     The SCF correction term to forces
     atom    1 type  2   force =     0.00000000    0.00000000    0.00000000
     atom    2 type  1   force =    -0.00000555   -0.00000028   -0.00000280
     atom    3 type  1   force =    -0.00000764   -0.00000221   -0.00000190
     atom    4 type  1   force =     0.00000554    0.00000027    0.00000280
     atom    5 type  1   force =     0.00000761    0.00000220    0.00000190
     atom    6 type  4   force =    -0.00000105   -0.00000037    0.00000018
     atom    7 type  4   force =    -0.00000123   -0.00000046    0.00000038
     atom    8 type  4   force =     0.00000105    0.00000037   -0.00000018
     atom    9 type  4   force =     0.00000123    0.00000046   -0.00000038
     atom   10 type  3   force =    -0.00000300   -0.00000027   -0.00000180
     atom   11 type  3   force =    -0.00000262   -0.00000032    0.00000042
     atom   12 type  3   force =     0.00000300    0.00000027    0.00000180
     atom   13 type  3   force =     0.00000262    0.00000031   -0.00000042
     atom   14 type  3   force =     0.00000121    0.00000027    0.00000035
     atom   15 type  3   force =    -0.00000062   -0.00000003   -0.00000050
     atom   16 type  3   force =    -0.00000121   -0.00000027   -0.00000035
     atom   17 type  3   force =     0.00000062    0.00000003    0.00000050
     atom   18 type  3   force =    -0.00000296   -0.00000049    0.00000132
     atom   19 type  3   force =    -0.00000148    0.00000148   -0.00000034
     atom   20 type  3   force =     0.00000126    0.00000010   -0.00000107
     atom   21 type  3   force =     0.00000169    0.00000145    0.00000079
     atom   22 type  3   force =     0.00000295    0.00000049   -0.00000132
     atom   23 type  3   force =     0.00000148   -0.00000148    0.00000034
     atom   24 type  3   force =    -0.00000126   -0.00000011    0.00000107
     atom   25 type  3   force =    -0.00000169   -0.00000145   -0.00000078

     Total force =     0.361208     Total SCF correction =     0.000018


     Computing stress (Cartesian axis) and pressure


     negative rho (up, down):  0.000E+00 8.632E-04
          total   stress  (Ry/bohr**3)                   (kbar)     P=      120.25
   0.00120974  -0.00005124  -0.00009903          177.96       -7.54      -14.57
  -0.00005124   0.00064187   0.00004501           -7.54       94.42        6.62
  -0.00009903   0.00004501   0.00060072          -14.57        6.62       88.37

     kinetic stress (kbar)  28189.89     88.75    -45.55
                               88.75  28203.72     12.99
                              -45.55     12.99  28239.96

     local   stress (kbar)  -9108.19   4029.17  -8398.25
                             4029.17 -13064.28  -1649.02
                            -8398.25  -1649.02  -5760.29

     nonloc. stress (kbar)  -7215.03      1.59     -3.61
                                1.59  -7183.02    -12.36
                               -3.61    -12.36  -7222.52

     hartree stress (kbar)  15402.68  -1464.06   3571.06
                            -1464.06  17692.76    704.24
                             3571.06    704.24  14482.14

     exc-cor stress (kbar)  -2970.29     -3.86      3.49
                               -3.86  -2975.01      0.48
                                3.49      0.48  -2973.84

     corecor stress (kbar)  -3283.45      0.70     -0.52
                                0.70  -3281.51      0.37
                               -0.52      0.37  -3281.16

     ewald   stress (kbar) -20837.65  -2659.82   4858.82
                            -2659.82 -19298.25    949.92
                             4858.82    949.92 -23395.93

     hubbard stress (kbar)      0.00      0.00      0.00
                                0.00      0.00      0.00
                                0.00      0.00      0.00

     DFT-D   stress (kbar)      0.00      0.00      0.00
                                0.00      0.00      0.00
                                0.00      0.00      0.00

     XDM     stress (kbar)      0.00      0.00      0.00
                                0.00      0.00      0.00
                                0.00      0.00      0.00

     dft-nl  stress (kbar)      0.00      0.00      0.00
                                0.00      0.00      0.00
                                0.00      0.00      0.00

     TS-vdW  stress (kbar)      0.00      0.00      0.00
                                0.00      0.00      0.00
                                0.00      0.00      0.00



     init_run     :   1187.16s CPU   1343.03s WALL (       1 calls)
     electrons    :  73015.72s CPU  83817.24s WALL (       1 calls)
     forces       :    147.70s CPU    164.93s WALL (       1 calls)
     stress       :    624.35s CPU    698.66s WALL (       1 calls)

     Called by init_run:
     wfcinit      :   1171.40s CPU   1325.05s WALL (       1 calls)
     wfcinit:atom :      0.55s CPU      0.66s WALL (     316 calls)
     wfcinit:wfcr :   1166.78s CPU   1319.78s WALL (     316 calls)
     potinit      :      6.93s CPU      7.56s WALL (       1 calls)
     hinit0       :      5.72s CPU      6.56s WALL (       1 calls)

     Called by electrons:
     c_bands      :  61356.70s CPU  70460.37s WALL (      26 calls)
     sum_band     :  11472.07s CPU  13140.79s WALL (      26 calls)
     v_of_rho     :     67.60s CPU     77.87s WALL (      27 calls)
     v_h          :      6.83s CPU      7.77s WALL (      27 calls)
     v_xc         :     66.04s CPU     75.62s WALL (      29 calls)
     newd         :     42.19s CPU     49.33s WALL (      27 calls)
     PAW_pot      :     16.28s CPU     19.15s WALL (      27 calls)
     mix_rho      :     50.21s CPU     57.20s WALL (      26 calls)

     Called by c_bands:
     init_us_2    :     43.98s CPU     47.82s WALL (   17380 calls)
     cegterg      :  60739.94s CPU  69721.88s WALL (    8216 calls)

     Called by sum_band:
     sum_band:wei :      0.46s CPU      0.53s WALL (      26 calls)
     sum_band:loo :  11397.89s CPU  13053.02s WALL (      26 calls)
     sum_band:buf :     10.35s CPU     10.67s WALL (    8216 calls)
     sum_band:ini :     17.33s CPU     18.29s WALL (    8216 calls)
     sum_band:cal :    753.11s CPU    872.17s WALL (    8216 calls)
     sum_band:bec :      1.91s CPU      1.91s WALL (    8216 calls)
     addusdens    :     52.23s CPU     62.47s WALL (      26 calls)
     addusd:skk   :      0.49s CPU      0.60s WALL (      78 calls)
     addusd:dgemm :      4.08s CPU      6.75s WALL (     156 calls)
     addusd:qvan2 :     46.97s CPU     54.25s WALL (     156 calls)

     Called by *egterg:
     cdiaghg      :   1125.69s CPU   1321.09s WALL (   34577 calls)
     cegterg:over :   3781.79s CPU   4341.74s WALL (   26361 calls)
     cegterg:upda :    136.31s CPU    146.37s WALL (   26361 calls)
     cegterg:last :    294.99s CPU    336.91s WALL (   15519 calls)
     h_psi        :  53402.81s CPU  61279.91s WALL (   34893 calls)
     s_psi        :    269.92s CPU    308.77s WALL (   34893 calls)
     g_psi        :     13.90s CPU     17.05s WALL (   26361 calls)

     Called by h_psi:
     h_psi:calbec :   2711.10s CPU   3125.70s WALL (   34893 calls)
     vloc_psi     :  50376.02s CPU  57782.11s WALL (   34893 calls)
     add_vuspsi   :    285.48s CPU    332.68s WALL (   34893 calls)

     General routines
     calbec       :   3739.41s CPU   4299.60s WALL (   44689 calls)
     fft          :    101.08s CPU    115.45s WALL (     713 calls)
     ffts         :      1.64s CPU      1.91s WALL (     106 calls)
     fftw         :  60532.92s CPU  69468.21s WALL ( 5399308 calls)
     interpolate  :      8.82s CPU      9.85s WALL (      54 calls)

     Parallel routines
     fft_scatt_xy :    180.04s CPU    181.98s WALL ( 5400127 calls)
     fft_scatt_yz :  59618.68s CPU  68556.05s WALL ( 5400127 calls)

     PAW routines
     PAW_pot      :     16.28s CPU     19.15s WALL (      27 calls)
     PAW_symme    :      5.29s CPU      5.94s WALL (      53 calls)

     PWSCF        :     20h49m CPU     23h54m WALL


   This run was terminated on:   8:39:32  25Jan2023            

=------------------------------------------------------------------------------=
   JOB DONE.
=------------------------------------------------------------------------------=
Note: The following floating-point exceptions are signalling: IEEE_UNDERFLOW_FLAG IEEE_DENORMAL
Note: The following floating-point exceptions are signalling: IEEE_DENORMAL
Note: The following floating-point exceptions are signalling: IEEE_DENORMAL
Note: The following floating-point exceptions are signalling: IEEE_DENORMAL
Note: The following floating-point exceptions are signalling: IEEE_DENORMAL
Note: The following floating-point exceptions are signalling: IEEE_DENORMAL
Note: The following floating-point exceptions are signalling: IEEE_DENORMAL
Note: The following floating-point exceptions are signalling: IEEE_DENORMAL
Note: The following floating-point exceptions are signalling: IEEE_DENORMAL
Note: The following floating-point exceptions are signalling: IEEE_DENORMAL
Note: The following floating-point exceptions are signalling: IEEE_DENORMAL
Note: The following floating-point exceptions are signalling: IEEE_DENORMAL
Note: The following floating-point exceptions are signalling: IEEE_DENORMAL
Note: The following floating-point exceptions are signalling: IEEE_DENORMAL
Note: The following floating-point exceptions are signalling: IEEE_DENORMAL
Note: The following floating-point exceptions are signalling: IEEE_DENORMAL
Note: The following floating-point exceptions are signalling: IEEE_DENORMAL
Note: The following floating-point exceptions are signalling: IEEE_DENORMAL
Note: The following floating-point exceptions are signalling: IEEE_DENORMAL
Note: The following floating-point exceptions are signalling: IEEE_DENORMAL
Note: The following floating-point exceptions are signalling: IEEE_DENORMAL
Note: The following floating-point exceptions are signalling: IEEE_DENORMAL
Note: The following floating-point exceptions are signalling: IEEE_INVALID_FLAG IEEE_DENORMAL
Note: The following floating-point exceptions are signalling: IEEE_INVALID_FLAG IEEE_DENORMAL
Note: The following floating-point exceptions are signalling: IEEE_DENORMAL
Note: The following floating-point exceptions are signalling: IEEE_DENORMAL
Note: The following floating-point exceptions are signalling: IEEE_DENORMAL
Note: The following floating-point exceptions are signalling: IEEE_DENORMAL
Note: The following floating-point exceptions are signalling: IEEE_DENORMAL
Note: The following floating-point exceptions are signalling: IEEE_DENORMAL
Note: The following floating-point exceptions are signalling: IEEE_DENORMAL
