
     Program PWSCF v.6.7MaX starts on  7Feb2023 at  2: 5:36 

     This program is part of the open-source Quantum ESPRESSO suite
     for quantum simulation of materials; please cite
         "P. Giannozzi et al., J. Phys.:Condens. Matter 21 395502 (2009);
         "P. Giannozzi et al., J. Phys.:Condens. Matter 29 465901 (2017);
          URL http://www.quantum-espresso.org", 
     in publications or presentations arising from this work. More details at
     http://www.quantum-espresso.org/quote

     Parallel version (MPI), running on    32 processors

     MPI processes distributed on     2 nodes
     R & G space division:  proc/nbgrp/npool/nimage =      32
     Reading input from scale_3d-03.in

     Current dimensions of program PWSCF are:
     Max number of different atomic species (ntypx) = 10
     Max number of k-points (npk) =  40000
     Max angular momentum in pseudopotentials (lmaxx) =  3
     Message from routine read_pp_mesh:
     mesh size missing, using the one in header
     file Fe.pbe-spn-kjpaw_psl.0.2.1.UPF: wavefunction(s)  3D renormalized
     file O.pbe-n-kjpaw_psl.0.1.UPF: wavefunction(s)  2P renormalized

     Subspace diagonalization in iterative solution of the eigenvalue problem:
     a serial algorithm will be used

     Message from routine setup:
     using ibrav=0 with symmetry is DISCOURAGED, use correct ibrav instead

     Parallelization info
     --------------------
     sticks:   dense  smooth     PW     G-vecs:    dense   smooth      PW
     Min         641     237     63                42525     9585    1344
     Max         642     238     65                42528     9588    1348
     Sum       20521    7599   2049              1360823   306739   43063



     bravais-lattice index     =            0
     lattice parameter (alat)  =      19.9928  a.u.
     unit-cell volume          =    2270.1860 (a.u.)^3
     number of atoms/cell      =           25
     number of atomic types    =            4
     number of electrons       =       189.00
     number of Kohn-Sham states=          114
     kinetic-energy cutoff     =     100.0000  Ry
     charge density cutoff     =    1080.0000  Ry
     scf convergence threshold =      2.0E-10
     mixing beta               =       0.4000
     number of iterations used =            8  plain     mixing
     Exchange-correlation= PBE
                           (   1   4   3   4   0   0   0)

     celldm(1)=  19.992808  celldm(2)=   0.000000  celldm(3)=   0.000000
     celldm(4)=   0.000000  celldm(5)=   0.000000  celldm(6)=   0.000000

     crystal axes: (cart. coord. in units of alat)
               a(1) = (   1.000000   0.000000   0.000000 )  
               a(2) = (   0.000000   0.597590   0.000000 )  
               a(3) = (   0.000000   0.000000   0.475375 )  

     reciprocal axes: (cart. coord. in units 2 pi/alat)
               b(1) = (  1.000000  0.000000  0.000000 )  
               b(2) = (  0.000000  1.673388  0.000000 )  
               b(3) = (  0.000000  0.000000  2.103600 )  


     PseudoPot. # 1 for Fe read from file:
     /opt/QEpot/SSSP_precision_pseudos/Fe.pbe-spn-kjpaw_psl.0.2.1.UPF
     MD5 check sum: e86618425769142926afa95317d90200
     Pseudo is Projector augmented-wave + core cor, Zval = 16.0
     Generated using "atomic" code by A. Dal Corso  v.5.0.99 svn rev. 10869
     Shape of augmentation charge: PSQ
     Using radial grid of 1191 points,  6 beta functions with: 
                l(1) =   0
                l(2) =   0
                l(3) =   1
                l(4) =   1
                l(5) =   2
                l(6) =   2
     Q(r) pseudized with 0 coefficients 


     PseudoPot. # 2 for Na read from file:
     /opt/QEpot/SSSP_precision_pseudos/Na_ONCV_PBE-1.0.oncvpsp.upf
     MD5 check sum: 24a298df0a6742ae313db96548fdb2a4
     Pseudo is Norm-conserving, Zval =  9.0
     Generated using ONCVPSP code by D. R. Hamann
     Using radial grid of 1992 points,  4 beta functions with: 
                l(1) =   0
                l(2) =   0
                l(3) =   1
                l(4) =   1

     PseudoPot. # 3 for O  read from file:
     /opt/QEpot/SSSP_precision_pseudos/O.pbe-n-kjpaw_psl.0.1.UPF
     MD5 check sum: 0234752ac141de4415c5fc33072bef88
     Pseudo is Projector augmented-wave + core cor, Zval =  6.0
     Generated using "atomic" code by A. Dal Corso  v.5.0.99 svn rev. 10869
     Shape of augmentation charge: BESSEL
     Using radial grid of 1095 points,  4 beta functions with: 
                l(1) =   0
                l(2) =   0
                l(3) =   1
                l(4) =   1
     Q(r) pseudized with 0 coefficients 


     PseudoPot. # 4 for P  read from file:
     /opt/QEpot/SSSP_precision_pseudos/P.pbe-n-rrkjus_psl.1.0.0.UPF
     MD5 check sum: 8b930f418f0a4573dca56cd030ffe088
     Pseudo is Ultrasoft + core correction, Zval =  5.0
     Generated using "atomic" code by A. Dal Corso  v.5.1
     Using radial grid of 1147 points,  6 beta functions with: 
                l(1) =   0
                l(2) =   0
                l(3) =   1
                l(4) =   1
                l(5) =   2
                l(6) =   2
     Q(r) pseudized with 0 coefficients 


     atomic species   valence    mass     pseudopotential
        Fe            16.00    55.84500     Fe( 1.00)
        Na             9.00    22.98977     Na( 1.00)
        O              6.00    15.99940     O ( 1.00)
        P              5.00    30.97376     P ( 1.00)

     Starting magnetic structure 
     atomic species   magnetization
        Fe           0.312
        Na           0.000
        O            0.000
        P            0.000

      2 Sym. Ops., with inversion, found ( 1 have fractional translation)


                                    s                        frac. trans.

      isym =  1     identity                                     

 cryst.   s( 1) = (     1          0          0      )
                  (     0          1          0      )
                  (     0          0          1      )

 cart.    s( 1) = (  1.0000000  0.0000000  0.0000000 )
                  (  0.0000000  1.0000000  0.0000000 )
                  (  0.0000000  0.0000000  1.0000000 )


      isym =  2     inversion                                    

 cryst.   s( 2) = (    -1          0          0      )    f =(  0.0000040 )
                  (     0         -1          0      )       (  0.0000000 )
                  (     0          0         -1      )       ( -0.0000060 )

 cart.    s( 2) = ( -1.0000000  0.0000000  0.0000000 )    f =(  0.0000040 )
                  (  0.0000000 -1.0000000  0.0000000 )       (  0.0000000 )
                  (  0.0000000  0.0000000 -1.0000000 )       ( -0.0000029 )


   Cartesian axes

     site n.     atom                  positions (alat units)
         1           Na  tau(   1) = (   0.9999980   0.0000000   0.2376892  )
         2           Fe  tau(   2) = (   0.2996860   0.4621103   0.4052210  )
         3           Fe  tau(   3) = (   0.2274400   0.2026356   0.2422742  )
         4           Fe  tau(   4) = (   0.7003200   0.1354826   0.0701569  )
         5           Fe  tau(   5) = (   0.7725660   0.3949573   0.2331042  )
         6           P   tau(   6) = (   0.0937970   0.3904700   0.1270004  )
         7           P   tau(   7) = (   0.3977930   0.1502502   0.4496363  )
         8           P   tau(   8) = (   0.9062090   0.2071229   0.3483799  )
         9           P   tau(   9) = (   0.6022130   0.4473427   0.0257411  )
        10           O   tau(  10) = (   0.1764850   0.4101953   0.2541177  )
        11           O   tau(  11) = (   0.3589780   0.1499030   0.1165801  )
        12           O   tau(  12) = (   0.8235200   0.1873976   0.2212592  )
        13           O   tau(  13) = (   0.6410280   0.4476899   0.3587987  )
        14           O   tau(  14) = (   0.4562740   0.4640531   0.0414951  )
        15           O   tau(  15) = (   0.0496550   0.1754697   0.3266747  )
        16           O   tau(  16) = (   0.5437320   0.1335398   0.4338833  )
        17           O   tau(  17) = (   0.9503500   0.4221232   0.1487032  )
        18           O   tau(  18) = (   0.1479210   0.4915428   0.0308162  )
        19           O   tau(  19) = (   0.3206550   0.0491548   0.3653199  )
        20           O   tau(  20) = (   0.8792370   0.3474352   0.3862863  )
        21           O   tau(  21) = (   0.6516400   0.3219271   0.0989903  )
        22           O   tau(  22) = (   0.8520850   0.1060501   0.4445621  )
        23           O   tau(  23) = (   0.6793510   0.5484382   0.1100585  )
        24           O   tau(  24) = (   0.1207690   0.2501571   0.0890915  )
        25           O   tau(  25) = (   0.3483660   0.2756658   0.3763881  )

   Crystallographic axes

     site n.     atom                  positions (cryst. coord.)
         1           Na  tau(   1) = (  0.9999980  0.0000000  0.5000030  )
         2           Fe  tau(   2) = (  0.2996860  0.7732900  0.8524230  )
         3           Fe  tau(   3) = (  0.2274400  0.3390880  0.5096480  )
         4           Fe  tau(   4) = (  0.7003200  0.2267150  0.1475820  )
         5           Fe  tau(   5) = (  0.7725660  0.6609170  0.4903580  )
         6           P   tau(   6) = (  0.0937970  0.6534080  0.2671580  )
         7           P   tau(   7) = (  0.3977930  0.2514270  0.9458550  )
         8           P   tau(   8) = (  0.9062090  0.3465970  0.7328520  )
         9           P   tau(   9) = (  0.6022130  0.7485780  0.0541490  )
        10           O   tau(  10) = (  0.1764850  0.6864160  0.5345620  )
        11           O   tau(  11) = (  0.3589780  0.2508460  0.2452380  )
        12           O   tau(  12) = (  0.8235200  0.3135890  0.4654410  )
        13           O   tau(  13) = (  0.6410280  0.7491590  0.7547690  )
        14           O   tau(  14) = (  0.4562740  0.7765410  0.0872890  )
        15           O   tau(  15) = (  0.0496550  0.2936290  0.6871930  )
        16           O   tau(  16) = (  0.5437320  0.2234640  0.9127170  )
        17           O   tau(  17) = (  0.9503500  0.7063760  0.3128120  )
        18           O   tau(  18) = (  0.1479210  0.8225420  0.0648250  )
        19           O   tau(  19) = (  0.3206550  0.0822550  0.7684870  )
        20           O   tau(  20) = (  0.8792370  0.5813940  0.8125920  )
        21           O   tau(  21) = (  0.6516400  0.5387090  0.2082360  )
        22           O   tau(  22) = (  0.8520850  0.1774630  0.9351810  )
        23           O   tau(  23) = (  0.6793510  0.9177500  0.2315190  )
        24           O   tau(  24) = (  0.1207690  0.4186100  0.1874130  )
        25           O   tau(  25) = (  0.3483660  0.4612960  0.7917700  )

     number of k points=   158  Marzari-Vanderbilt smearing, width (Ry)=  0.0073
                       cart. coord. in units 2pi/alat
        k(    1) = (   0.0000000   0.0000000   0.0000000), wk =   0.0031746
        k(    2) = (   0.0000000   0.0000000   0.2337334), wk =   0.0063492
        k(    3) = (   0.0000000   0.0000000   0.4674667), wk =   0.0063492
        k(    4) = (   0.0000000   0.0000000   0.7012001), wk =   0.0063492
        k(    5) = (   0.0000000   0.0000000   0.9349334), wk =   0.0063492
        k(    6) = (   0.0000000   0.2390555   0.0000000), wk =   0.0063492
        k(    7) = (   0.0000000   0.2390555   0.2337334), wk =   0.0063492
        k(    8) = (   0.0000000   0.2390555   0.4674667), wk =   0.0063492
        k(    9) = (   0.0000000   0.2390555   0.7012001), wk =   0.0063492
        k(   10) = (   0.0000000   0.2390555   0.9349334), wk =   0.0063492
        k(   11) = (   0.0000000   0.4781110   0.0000000), wk =   0.0063492
        k(   12) = (   0.0000000   0.4781110   0.2337334), wk =   0.0063492
        k(   13) = (   0.0000000   0.4781110   0.4674667), wk =   0.0063492
        k(   14) = (   0.0000000   0.4781110   0.7012001), wk =   0.0063492
        k(   15) = (   0.0000000   0.4781110   0.9349334), wk =   0.0063492
        k(   16) = (   0.0000000   0.7171664   0.0000000), wk =   0.0063492
        k(   17) = (   0.0000000   0.7171664   0.2337334), wk =   0.0063492
        k(   18) = (   0.0000000   0.7171664   0.4674667), wk =   0.0063492
        k(   19) = (   0.0000000   0.7171664   0.7012001), wk =   0.0063492
        k(   20) = (   0.0000000   0.7171664   0.9349334), wk =   0.0063492
        k(   21) = (   0.2000000   0.0000000   0.0000000), wk =   0.0063492
        k(   22) = (   0.2000000   0.0000000   0.2337334), wk =   0.0063492
        k(   23) = (   0.2000000   0.0000000   0.4674667), wk =   0.0063492
        k(   24) = (   0.2000000   0.0000000   0.7012001), wk =   0.0063492
        k(   25) = (   0.2000000   0.0000000   0.9349334), wk =   0.0063492
        k(   26) = (   0.2000000   0.2390555   0.0000000), wk =   0.0063492
        k(   27) = (   0.2000000   0.2390555   0.2337334), wk =   0.0063492
        k(   28) = (   0.2000000   0.2390555   0.4674667), wk =   0.0063492
        k(   29) = (   0.2000000   0.2390555   0.7012001), wk =   0.0063492
        k(   30) = (   0.2000000   0.2390555   0.9349334), wk =   0.0063492
        k(   31) = (   0.2000000   0.4781110   0.0000000), wk =   0.0063492
        k(   32) = (   0.2000000   0.4781110   0.2337334), wk =   0.0063492
        k(   33) = (   0.2000000   0.4781110   0.4674667), wk =   0.0063492
        k(   34) = (   0.2000000   0.4781110   0.7012001), wk =   0.0063492
        k(   35) = (   0.2000000   0.4781110   0.9349334), wk =   0.0063492
        k(   36) = (   0.2000000   0.7171664   0.0000000), wk =   0.0063492
        k(   37) = (   0.2000000   0.7171664   0.2337334), wk =   0.0063492
        k(   38) = (   0.2000000   0.7171664   0.4674667), wk =   0.0063492
        k(   39) = (   0.2000000   0.7171664   0.7012001), wk =   0.0063492
        k(   40) = (   0.2000000   0.7171664   0.9349334), wk =   0.0063492
        k(   41) = (   0.4000000   0.0000000   0.0000000), wk =   0.0063492
        k(   42) = (   0.4000000   0.0000000   0.2337334), wk =   0.0063492
        k(   43) = (   0.4000000   0.0000000   0.4674667), wk =   0.0063492
        k(   44) = (   0.4000000   0.0000000   0.7012001), wk =   0.0063492
        k(   45) = (   0.4000000   0.0000000   0.9349334), wk =   0.0063492
        k(   46) = (   0.4000000   0.2390555   0.0000000), wk =   0.0063492
        k(   47) = (   0.4000000   0.2390555   0.2337334), wk =   0.0063492
        k(   48) = (   0.4000000   0.2390555   0.4674667), wk =   0.0063492
        k(   49) = (   0.4000000   0.2390555   0.7012001), wk =   0.0063492
        k(   50) = (   0.4000000   0.2390555   0.9349334), wk =   0.0063492
        k(   51) = (   0.4000000   0.4781110   0.0000000), wk =   0.0063492
        k(   52) = (   0.4000000   0.4781110   0.2337334), wk =   0.0063492
        k(   53) = (   0.4000000   0.4781110   0.4674667), wk =   0.0063492
        k(   54) = (   0.4000000   0.4781110   0.7012001), wk =   0.0063492
        k(   55) = (   0.4000000   0.4781110   0.9349334), wk =   0.0063492
        k(   56) = (   0.4000000   0.7171664   0.0000000), wk =   0.0063492
        k(   57) = (   0.4000000   0.7171664   0.2337334), wk =   0.0063492
        k(   58) = (   0.4000000   0.7171664   0.4674667), wk =   0.0063492
        k(   59) = (   0.4000000   0.7171664   0.7012001), wk =   0.0063492
        k(   60) = (   0.4000000   0.7171664   0.9349334), wk =   0.0063492
        k(   61) = (   0.0000000   0.2390555  -0.2337334), wk =   0.0063492
        k(   62) = (   0.0000000   0.2390555  -0.4674667), wk =   0.0063492
        k(   63) = (   0.0000000   0.2390555  -0.7012001), wk =   0.0063492
        k(   64) = (   0.0000000   0.2390555  -0.9349334), wk =   0.0063492
        k(   65) = (   0.0000000   0.4781110  -0.2337334), wk =   0.0063492
        k(   66) = (   0.0000000   0.4781110  -0.4674667), wk =   0.0063492
        k(   67) = (   0.0000000   0.4781110  -0.7012001), wk =   0.0063492
        k(   68) = (   0.0000000   0.4781110  -0.9349334), wk =   0.0063492
        k(   69) = (   0.0000000   0.7171664  -0.2337334), wk =   0.0063492
        k(   70) = (   0.0000000   0.7171664  -0.4674667), wk =   0.0063492
        k(   71) = (   0.0000000   0.7171664  -0.7012001), wk =   0.0063492
        k(   72) = (   0.0000000   0.7171664  -0.9349334), wk =   0.0063492
        k(   73) = (   0.2000000   0.0000000  -0.2337334), wk =   0.0063492
        k(   74) = (   0.2000000   0.0000000  -0.4674667), wk =   0.0063492
        k(   75) = (   0.2000000   0.0000000  -0.7012001), wk =   0.0063492
        k(   76) = (   0.2000000   0.0000000  -0.9349334), wk =   0.0063492
        k(   77) = (  -0.2000000   0.2390555   0.0000000), wk =   0.0063492
        k(   78) = (  -0.2000000   0.2390555  -0.2337334), wk =   0.0063492
        k(   79) = (   0.2000000  -0.2390555  -0.2337334), wk =   0.0063492
        k(   80) = (  -0.2000000  -0.2390555   0.2337334), wk =   0.0063492
        k(   81) = (  -0.2000000   0.2390555  -0.4674667), wk =   0.0063492
        k(   82) = (   0.2000000  -0.2390555  -0.4674667), wk =   0.0063492
        k(   83) = (  -0.2000000  -0.2390555   0.4674667), wk =   0.0063492
        k(   84) = (  -0.2000000   0.2390555  -0.7012001), wk =   0.0063492
        k(   85) = (   0.2000000  -0.2390555  -0.7012001), wk =   0.0063492
        k(   86) = (  -0.2000000  -0.2390555   0.7012001), wk =   0.0063492
        k(   87) = (  -0.2000000   0.2390555  -0.9349334), wk =   0.0063492
        k(   88) = (   0.2000000  -0.2390555  -0.9349334), wk =   0.0063492
        k(   89) = (  -0.2000000  -0.2390555   0.9349334), wk =   0.0063492
        k(   90) = (  -0.2000000   0.4781110   0.0000000), wk =   0.0063492
        k(   91) = (  -0.2000000   0.4781110  -0.2337334), wk =   0.0063492
        k(   92) = (   0.2000000  -0.4781110  -0.2337334), wk =   0.0063492
        k(   93) = (  -0.2000000  -0.4781110   0.2337334), wk =   0.0063492
        k(   94) = (  -0.2000000   0.4781110  -0.4674667), wk =   0.0063492
        k(   95) = (   0.2000000  -0.4781110  -0.4674667), wk =   0.0063492
        k(   96) = (  -0.2000000  -0.4781110   0.4674667), wk =   0.0063492
        k(   97) = (  -0.2000000   0.4781110  -0.7012001), wk =   0.0063492
        k(   98) = (   0.2000000  -0.4781110  -0.7012001), wk =   0.0063492
        k(   99) = (  -0.2000000  -0.4781110   0.7012001), wk =   0.0063492
        k(  100) = (  -0.2000000   0.4781110  -0.9349334), wk =   0.0063492
        k(  101) = (   0.2000000  -0.4781110  -0.9349334), wk =   0.0063492
        k(  102) = (  -0.2000000  -0.4781110   0.9349334), wk =   0.0063492
        k(  103) = (  -0.2000000   0.7171664   0.0000000), wk =   0.0063492
        k(  104) = (  -0.2000000   0.7171664  -0.2337334), wk =   0.0063492
        k(  105) = (   0.2000000  -0.7171664  -0.2337334), wk =   0.0063492
        k(  106) = (  -0.2000000  -0.7171664   0.2337334), wk =   0.0063492
        k(  107) = (  -0.2000000   0.7171664  -0.4674667), wk =   0.0063492
        k(  108) = (   0.2000000  -0.7171664  -0.4674667), wk =   0.0063492
        k(  109) = (  -0.2000000  -0.7171664   0.4674667), wk =   0.0063492
        k(  110) = (  -0.2000000   0.7171664  -0.7012001), wk =   0.0063492
        k(  111) = (   0.2000000  -0.7171664  -0.7012001), wk =   0.0063492
        k(  112) = (  -0.2000000  -0.7171664   0.7012001), wk =   0.0063492
        k(  113) = (  -0.2000000   0.7171664  -0.9349334), wk =   0.0063492
        k(  114) = (   0.2000000  -0.7171664  -0.9349334), wk =   0.0063492
        k(  115) = (  -0.2000000  -0.7171664   0.9349334), wk =   0.0063492
        k(  116) = (   0.4000000   0.0000000  -0.2337334), wk =   0.0063492
        k(  117) = (   0.4000000   0.0000000  -0.4674667), wk =   0.0063492
        k(  118) = (   0.4000000   0.0000000  -0.7012001), wk =   0.0063492
        k(  119) = (   0.4000000   0.0000000  -0.9349334), wk =   0.0063492
        k(  120) = (  -0.4000000   0.2390555   0.0000000), wk =   0.0063492
        k(  121) = (  -0.4000000   0.2390555  -0.2337334), wk =   0.0063492
        k(  122) = (   0.4000000  -0.2390555  -0.2337334), wk =   0.0063492
        k(  123) = (  -0.4000000  -0.2390555   0.2337334), wk =   0.0063492
        k(  124) = (  -0.4000000   0.2390555  -0.4674667), wk =   0.0063492
        k(  125) = (   0.4000000  -0.2390555  -0.4674667), wk =   0.0063492
        k(  126) = (  -0.4000000  -0.2390555   0.4674667), wk =   0.0063492
        k(  127) = (  -0.4000000   0.2390555  -0.7012001), wk =   0.0063492
        k(  128) = (   0.4000000  -0.2390555  -0.7012001), wk =   0.0063492
        k(  129) = (  -0.4000000  -0.2390555   0.7012001), wk =   0.0063492
        k(  130) = (  -0.4000000   0.2390555  -0.9349334), wk =   0.0063492
        k(  131) = (   0.4000000  -0.2390555  -0.9349334), wk =   0.0063492
        k(  132) = (  -0.4000000  -0.2390555   0.9349334), wk =   0.0063492
        k(  133) = (  -0.4000000   0.4781110   0.0000000), wk =   0.0063492
        k(  134) = (  -0.4000000   0.4781110  -0.2337334), wk =   0.0063492
        k(  135) = (   0.4000000  -0.4781110  -0.2337334), wk =   0.0063492
        k(  136) = (  -0.4000000  -0.4781110   0.2337334), wk =   0.0063492
        k(  137) = (  -0.4000000   0.4781110  -0.4674667), wk =   0.0063492
        k(  138) = (   0.4000000  -0.4781110  -0.4674667), wk =   0.0063492
        k(  139) = (  -0.4000000  -0.4781110   0.4674667), wk =   0.0063492
        k(  140) = (  -0.4000000   0.4781110  -0.7012001), wk =   0.0063492
        k(  141) = (   0.4000000  -0.4781110  -0.7012001), wk =   0.0063492
        k(  142) = (  -0.4000000  -0.4781110   0.7012001), wk =   0.0063492
        k(  143) = (  -0.4000000   0.4781110  -0.9349334), wk =   0.0063492
        k(  144) = (   0.4000000  -0.4781110  -0.9349334), wk =   0.0063492
        k(  145) = (  -0.4000000  -0.4781110   0.9349334), wk =   0.0063492
        k(  146) = (  -0.4000000   0.7171664   0.0000000), wk =   0.0063492
        k(  147) = (  -0.4000000   0.7171664  -0.2337334), wk =   0.0063492
        k(  148) = (   0.4000000  -0.7171664  -0.2337334), wk =   0.0063492
        k(  149) = (  -0.4000000  -0.7171664   0.2337334), wk =   0.0063492
        k(  150) = (  -0.4000000   0.7171664  -0.4674667), wk =   0.0063492
        k(  151) = (   0.4000000  -0.7171664  -0.4674667), wk =   0.0063492
        k(  152) = (  -0.4000000  -0.7171664   0.4674667), wk =   0.0063492
        k(  153) = (  -0.4000000   0.7171664  -0.7012001), wk =   0.0063492
        k(  154) = (   0.4000000  -0.7171664  -0.7012001), wk =   0.0063492
        k(  155) = (  -0.4000000  -0.7171664   0.7012001), wk =   0.0063492
        k(  156) = (  -0.4000000   0.7171664  -0.9349334), wk =   0.0063492
        k(  157) = (   0.4000000  -0.7171664  -0.9349334), wk =   0.0063492
        k(  158) = (  -0.4000000  -0.7171664   0.9349334), wk =   0.0063492

                       cryst. coord.
        k(    1) = (   0.0000000   0.0000000   0.0000000), wk =   0.0031746
        k(    2) = (   0.0000000   0.0000000   0.1111111), wk =   0.0063492
        k(    3) = (   0.0000000   0.0000000   0.2222222), wk =   0.0063492
        k(    4) = (   0.0000000   0.0000000   0.3333333), wk =   0.0063492
        k(    5) = (   0.0000000   0.0000000   0.4444444), wk =   0.0063492
        k(    6) = (   0.0000000   0.1428571   0.0000000), wk =   0.0063492
        k(    7) = (   0.0000000   0.1428571   0.1111111), wk =   0.0063492
        k(    8) = (   0.0000000   0.1428571   0.2222222), wk =   0.0063492
        k(    9) = (   0.0000000   0.1428571   0.3333333), wk =   0.0063492
        k(   10) = (   0.0000000   0.1428571   0.4444444), wk =   0.0063492
        k(   11) = (   0.0000000   0.2857143   0.0000000), wk =   0.0063492
        k(   12) = (   0.0000000   0.2857143   0.1111111), wk =   0.0063492
        k(   13) = (   0.0000000   0.2857143   0.2222222), wk =   0.0063492
        k(   14) = (   0.0000000   0.2857143   0.3333333), wk =   0.0063492
        k(   15) = (   0.0000000   0.2857143   0.4444444), wk =   0.0063492
        k(   16) = (   0.0000000   0.4285714   0.0000000), wk =   0.0063492
        k(   17) = (   0.0000000   0.4285714   0.1111111), wk =   0.0063492
        k(   18) = (   0.0000000   0.4285714   0.2222222), wk =   0.0063492
        k(   19) = (   0.0000000   0.4285714   0.3333333), wk =   0.0063492
        k(   20) = (   0.0000000   0.4285714   0.4444444), wk =   0.0063492
        k(   21) = (   0.2000000   0.0000000   0.0000000), wk =   0.0063492
        k(   22) = (   0.2000000   0.0000000   0.1111111), wk =   0.0063492
        k(   23) = (   0.2000000   0.0000000   0.2222222), wk =   0.0063492
        k(   24) = (   0.2000000   0.0000000   0.3333333), wk =   0.0063492
        k(   25) = (   0.2000000   0.0000000   0.4444444), wk =   0.0063492
        k(   26) = (   0.2000000   0.1428571   0.0000000), wk =   0.0063492
        k(   27) = (   0.2000000   0.1428571   0.1111111), wk =   0.0063492
        k(   28) = (   0.2000000   0.1428571   0.2222222), wk =   0.0063492
        k(   29) = (   0.2000000   0.1428571   0.3333333), wk =   0.0063492
        k(   30) = (   0.2000000   0.1428571   0.4444444), wk =   0.0063492
        k(   31) = (   0.2000000   0.2857143   0.0000000), wk =   0.0063492
        k(   32) = (   0.2000000   0.2857143   0.1111111), wk =   0.0063492
        k(   33) = (   0.2000000   0.2857143   0.2222222), wk =   0.0063492
        k(   34) = (   0.2000000   0.2857143   0.3333333), wk =   0.0063492
        k(   35) = (   0.2000000   0.2857143   0.4444444), wk =   0.0063492
        k(   36) = (   0.2000000   0.4285714   0.0000000), wk =   0.0063492
        k(   37) = (   0.2000000   0.4285714   0.1111111), wk =   0.0063492
        k(   38) = (   0.2000000   0.4285714   0.2222222), wk =   0.0063492
        k(   39) = (   0.2000000   0.4285714   0.3333333), wk =   0.0063492
        k(   40) = (   0.2000000   0.4285714   0.4444444), wk =   0.0063492
        k(   41) = (   0.4000000   0.0000000   0.0000000), wk =   0.0063492
        k(   42) = (   0.4000000   0.0000000   0.1111111), wk =   0.0063492
        k(   43) = (   0.4000000   0.0000000   0.2222222), wk =   0.0063492
        k(   44) = (   0.4000000   0.0000000   0.3333333), wk =   0.0063492
        k(   45) = (   0.4000000   0.0000000   0.4444444), wk =   0.0063492
        k(   46) = (   0.4000000   0.1428571   0.0000000), wk =   0.0063492
        k(   47) = (   0.4000000   0.1428571   0.1111111), wk =   0.0063492
        k(   48) = (   0.4000000   0.1428571   0.2222222), wk =   0.0063492
        k(   49) = (   0.4000000   0.1428571   0.3333333), wk =   0.0063492
        k(   50) = (   0.4000000   0.1428571   0.4444444), wk =   0.0063492
        k(   51) = (   0.4000000   0.2857143   0.0000000), wk =   0.0063492
        k(   52) = (   0.4000000   0.2857143   0.1111111), wk =   0.0063492
        k(   53) = (   0.4000000   0.2857143   0.2222222), wk =   0.0063492
        k(   54) = (   0.4000000   0.2857143   0.3333333), wk =   0.0063492
        k(   55) = (   0.4000000   0.2857143   0.4444444), wk =   0.0063492
        k(   56) = (   0.4000000   0.4285714   0.0000000), wk =   0.0063492
        k(   57) = (   0.4000000   0.4285714   0.1111111), wk =   0.0063492
        k(   58) = (   0.4000000   0.4285714   0.2222222), wk =   0.0063492
        k(   59) = (   0.4000000   0.4285714   0.3333333), wk =   0.0063492
        k(   60) = (   0.4000000   0.4285714   0.4444444), wk =   0.0063492
        k(   61) = (   0.0000000   0.1428571  -0.1111111), wk =   0.0063492
        k(   62) = (   0.0000000   0.1428571  -0.2222222), wk =   0.0063492
        k(   63) = (   0.0000000   0.1428571  -0.3333333), wk =   0.0063492
        k(   64) = (   0.0000000   0.1428571  -0.4444444), wk =   0.0063492
        k(   65) = (   0.0000000   0.2857143  -0.1111111), wk =   0.0063492
        k(   66) = (   0.0000000   0.2857143  -0.2222222), wk =   0.0063492
        k(   67) = (   0.0000000   0.2857143  -0.3333333), wk =   0.0063492
        k(   68) = (   0.0000000   0.2857143  -0.4444444), wk =   0.0063492
        k(   69) = (   0.0000000   0.4285714  -0.1111111), wk =   0.0063492
        k(   70) = (   0.0000000   0.4285714  -0.2222222), wk =   0.0063492
        k(   71) = (   0.0000000   0.4285714  -0.3333333), wk =   0.0063492
        k(   72) = (   0.0000000   0.4285714  -0.4444444), wk =   0.0063492
        k(   73) = (   0.2000000   0.0000000  -0.1111111), wk =   0.0063492
        k(   74) = (   0.2000000   0.0000000  -0.2222222), wk =   0.0063492
        k(   75) = (   0.2000000   0.0000000  -0.3333333), wk =   0.0063492
        k(   76) = (   0.2000000   0.0000000  -0.4444444), wk =   0.0063492
        k(   77) = (  -0.2000000   0.1428571   0.0000000), wk =   0.0063492
        k(   78) = (  -0.2000000   0.1428571  -0.1111111), wk =   0.0063492
        k(   79) = (   0.2000000  -0.1428571  -0.1111111), wk =   0.0063492
        k(   80) = (  -0.2000000  -0.1428571   0.1111111), wk =   0.0063492
        k(   81) = (  -0.2000000   0.1428571  -0.2222222), wk =   0.0063492
        k(   82) = (   0.2000000  -0.1428571  -0.2222222), wk =   0.0063492
        k(   83) = (  -0.2000000  -0.1428571   0.2222222), wk =   0.0063492
        k(   84) = (  -0.2000000   0.1428571  -0.3333333), wk =   0.0063492
        k(   85) = (   0.2000000  -0.1428571  -0.3333333), wk =   0.0063492
        k(   86) = (  -0.2000000  -0.1428571   0.3333333), wk =   0.0063492
        k(   87) = (  -0.2000000   0.1428571  -0.4444444), wk =   0.0063492
        k(   88) = (   0.2000000  -0.1428571  -0.4444444), wk =   0.0063492
        k(   89) = (  -0.2000000  -0.1428571   0.4444444), wk =   0.0063492
        k(   90) = (  -0.2000000   0.2857143   0.0000000), wk =   0.0063492
        k(   91) = (  -0.2000000   0.2857143  -0.1111111), wk =   0.0063492
        k(   92) = (   0.2000000  -0.2857143  -0.1111111), wk =   0.0063492
        k(   93) = (  -0.2000000  -0.2857143   0.1111111), wk =   0.0063492
        k(   94) = (  -0.2000000   0.2857143  -0.2222222), wk =   0.0063492
        k(   95) = (   0.2000000  -0.2857143  -0.2222222), wk =   0.0063492
        k(   96) = (  -0.2000000  -0.2857143   0.2222222), wk =   0.0063492
        k(   97) = (  -0.2000000   0.2857143  -0.3333333), wk =   0.0063492
        k(   98) = (   0.2000000  -0.2857143  -0.3333333), wk =   0.0063492
        k(   99) = (  -0.2000000  -0.2857143   0.3333333), wk =   0.0063492
        k(  100) = (  -0.2000000   0.2857143  -0.4444444), wk =   0.0063492
        k(  101) = (   0.2000000  -0.2857143  -0.4444444), wk =   0.0063492
        k(  102) = (  -0.2000000  -0.2857143   0.4444444), wk =   0.0063492
        k(  103) = (  -0.2000000   0.4285714   0.0000000), wk =   0.0063492
        k(  104) = (  -0.2000000   0.4285714  -0.1111111), wk =   0.0063492
        k(  105) = (   0.2000000  -0.4285714  -0.1111111), wk =   0.0063492
        k(  106) = (  -0.2000000  -0.4285714   0.1111111), wk =   0.0063492
        k(  107) = (  -0.2000000   0.4285714  -0.2222222), wk =   0.0063492
        k(  108) = (   0.2000000  -0.4285714  -0.2222222), wk =   0.0063492
        k(  109) = (  -0.2000000  -0.4285714   0.2222222), wk =   0.0063492
        k(  110) = (  -0.2000000   0.4285714  -0.3333333), wk =   0.0063492
        k(  111) = (   0.2000000  -0.4285714  -0.3333333), wk =   0.0063492
        k(  112) = (  -0.2000000  -0.4285714   0.3333333), wk =   0.0063492
        k(  113) = (  -0.2000000   0.4285714  -0.4444444), wk =   0.0063492
        k(  114) = (   0.2000000  -0.4285714  -0.4444444), wk =   0.0063492
        k(  115) = (  -0.2000000  -0.4285714   0.4444444), wk =   0.0063492
        k(  116) = (   0.4000000   0.0000000  -0.1111111), wk =   0.0063492
        k(  117) = (   0.4000000   0.0000000  -0.2222222), wk =   0.0063492
        k(  118) = (   0.4000000   0.0000000  -0.3333333), wk =   0.0063492
        k(  119) = (   0.4000000   0.0000000  -0.4444444), wk =   0.0063492
        k(  120) = (  -0.4000000   0.1428571   0.0000000), wk =   0.0063492
        k(  121) = (  -0.4000000   0.1428571  -0.1111111), wk =   0.0063492
        k(  122) = (   0.4000000  -0.1428571  -0.1111111), wk =   0.0063492
        k(  123) = (  -0.4000000  -0.1428571   0.1111111), wk =   0.0063492
        k(  124) = (  -0.4000000   0.1428571  -0.2222222), wk =   0.0063492
        k(  125) = (   0.4000000  -0.1428571  -0.2222222), wk =   0.0063492
        k(  126) = (  -0.4000000  -0.1428571   0.2222222), wk =   0.0063492
        k(  127) = (  -0.4000000   0.1428571  -0.3333333), wk =   0.0063492
        k(  128) = (   0.4000000  -0.1428571  -0.3333333), wk =   0.0063492
        k(  129) = (  -0.4000000  -0.1428571   0.3333333), wk =   0.0063492
        k(  130) = (  -0.4000000   0.1428571  -0.4444444), wk =   0.0063492
        k(  131) = (   0.4000000  -0.1428571  -0.4444444), wk =   0.0063492
        k(  132) = (  -0.4000000  -0.1428571   0.4444444), wk =   0.0063492
        k(  133) = (  -0.4000000   0.2857143   0.0000000), wk =   0.0063492
        k(  134) = (  -0.4000000   0.2857143  -0.1111111), wk =   0.0063492
        k(  135) = (   0.4000000  -0.2857143  -0.1111111), wk =   0.0063492
        k(  136) = (  -0.4000000  -0.2857143   0.1111111), wk =   0.0063492
        k(  137) = (  -0.4000000   0.2857143  -0.2222222), wk =   0.0063492
        k(  138) = (   0.4000000  -0.2857143  -0.2222222), wk =   0.0063492
        k(  139) = (  -0.4000000  -0.2857143   0.2222222), wk =   0.0063492
        k(  140) = (  -0.4000000   0.2857143  -0.3333333), wk =   0.0063492
        k(  141) = (   0.4000000  -0.2857143  -0.3333333), wk =   0.0063492
        k(  142) = (  -0.4000000  -0.2857143   0.3333333), wk =   0.0063492
        k(  143) = (  -0.4000000   0.2857143  -0.4444444), wk =   0.0063492
        k(  144) = (   0.4000000  -0.2857143  -0.4444444), wk =   0.0063492
        k(  145) = (  -0.4000000  -0.2857143   0.4444444), wk =   0.0063492
        k(  146) = (  -0.4000000   0.4285714   0.0000000), wk =   0.0063492
        k(  147) = (  -0.4000000   0.4285714  -0.1111111), wk =   0.0063492
        k(  148) = (   0.4000000  -0.4285714  -0.1111111), wk =   0.0063492
        k(  149) = (  -0.4000000  -0.4285714   0.1111111), wk =   0.0063492
        k(  150) = (  -0.4000000   0.4285714  -0.2222222), wk =   0.0063492
        k(  151) = (   0.4000000  -0.4285714  -0.2222222), wk =   0.0063492
        k(  152) = (  -0.4000000  -0.4285714   0.2222222), wk =   0.0063492
        k(  153) = (  -0.4000000   0.4285714  -0.3333333), wk =   0.0063492
        k(  154) = (   0.4000000  -0.4285714  -0.3333333), wk =   0.0063492
        k(  155) = (  -0.4000000  -0.4285714   0.3333333), wk =   0.0063492
        k(  156) = (  -0.4000000   0.4285714  -0.4444444), wk =   0.0063492
        k(  157) = (   0.4000000  -0.4285714  -0.4444444), wk =   0.0063492
        k(  158) = (  -0.4000000  -0.4285714   0.4444444), wk =   0.0063492

     Dense  grid:  1360823 G-vectors     FFT dimensions: ( 216, 125, 100)

     Smooth grid:   306739 G-vectors     FFT dimensions: ( 128,  80,  64)

     Dynamical RAM for                 wfc:       2.08 MB

     Dynamical RAM for     wfc (w. buffer):     660.60 MB

     Dynamical RAM for           str. fact:       2.60 MB

     Dynamical RAM for           local pot:       0.00 MB

     Dynamical RAM for          nlocal pot:       5.12 MB

     Dynamical RAM for                qrad:      10.54 MB

     Dynamical RAM for          rho,v,vnew:       8.84 MB

     Dynamical RAM for               rhoin:       2.95 MB

     Dynamical RAM for            rho*nmix:      20.77 MB

     Dynamical RAM for           G-vectors:       2.51 MB

     Dynamical RAM for          h,s,v(r/c):       2.38 MB

     Dynamical RAM for          <psi|beta>:       0.49 MB

     Dynamical RAM for                 psi:       4.17 MB

     Dynamical RAM for                hpsi:       4.17 MB

     Dynamical RAM for                spsi:       4.17 MB

     Dynamical RAM for      wfcinit/wfcrot:       5.44 MB

     Dynamical RAM for           addusdens:     131.73 MB

     Dynamical RAM for          addusforce:     151.32 MB

     Dynamical RAM for         addusstress:     131.40 MB

     Estimated static dynamical RAM per process >     722.10 MB

     Estimated max dynamical RAM per process >     873.42 MB

     Estimated total dynamical RAM >      27.29 GB

     Check: negative core charge=   -0.000003
     Generating pointlists ...
     new r_m :   0.0762 (alat units)  1.5228 (a.u.) for type    1
     new r_m :   0.0837 (alat units)  1.6734 (a.u.) for type    2
     new r_m :   0.0609 (alat units)  1.2166 (a.u.) for type    3
     new r_m :   0.0609 (alat units)  1.2166 (a.u.) for type    4

     Initial potential from superposition of free atoms

     starting charge  188.99132, renormalised to  189.00000
     Starting wfcs are  137 randomized atomic wfcs
     Checking if some PAW data can be deallocated... 
       PAW data deallocated on   24 nodes for type:  1
       PAW data deallocated on   16 nodes for type:  3

     total cpu time spent up to now is     1373.8 secs

     Self-consistent Calculation

     iteration #  1     ecut=   100.00 Ry     beta= 0.40
     Davidson diagonalization with overlap
     ethr =  1.00E-02,  avg # of iterations =  3.0

     negative rho (up, down):  0.000E+00 8.619E-05

     total cpu time spent up to now is     5014.9 secs

     total energy              =   -2123.74260677 Ry
     estimated scf accuracy    <       6.96186663 Ry

     total magnetization       =    19.00 Bohr mag/cell
     absolute magnetization    =    19.00 Bohr mag/cell

     iteration #  2     ecut=   100.00 Ry     beta= 0.40
     Davidson diagonalization with overlap
     ethr =  3.68E-03,  avg # of iterations =  2.0

     negative rho (up, down):  0.000E+00 4.595E-05

     total cpu time spent up to now is     8460.1 secs

     total energy              =   -2121.85357331 Ry
     estimated scf accuracy    <      24.62013551 Ry

     total magnetization       =    10.06 Bohr mag/cell
     absolute magnetization    =    10.47 Bohr mag/cell

     iteration #  3     ecut=   100.00 Ry     beta= 0.40
     Davidson diagonalization with overlap
     ethr =  3.68E-03,  avg # of iterations =  2.0

     negative rho (up, down):  0.000E+00 3.468E-05

     total cpu time spent up to now is    11344.3 secs

     total energy              =   -2124.29472195 Ry
     estimated scf accuracy    <      23.82663800 Ry

     total magnetization       =     8.89 Bohr mag/cell
     absolute magnetization    =     9.59 Bohr mag/cell

     iteration #  4     ecut=   100.00 Ry     beta= 0.40
     Davidson diagonalization with overlap
     ethr =  3.68E-03,  avg # of iterations =  1.9

     negative rho (up, down):  0.000E+00 1.507E-04

     total cpu time spent up to now is    14168.5 secs

     total energy              =   -2125.94290106 Ry
     estimated scf accuracy    <       2.20609047 Ry

     total magnetization       =    19.02 Bohr mag/cell
     absolute magnetization    =    19.03 Bohr mag/cell

     iteration #  5     ecut=   100.00 Ry     beta= 0.40
     Davidson diagonalization with overlap
     ethr =  1.17E-03,  avg # of iterations =  1.5

     negative rho (up, down):  0.000E+00 4.368E-04

     total cpu time spent up to now is    16928.4 secs

     total energy              =   -2125.79980990 Ry
     estimated scf accuracy    <       0.77536172 Ry

     total magnetization       =    19.00 Bohr mag/cell
     absolute magnetization    =    19.00 Bohr mag/cell

     iteration #  6     ecut=   100.00 Ry     beta= 0.40
     Davidson diagonalization with overlap
     ethr =  4.10E-04,  avg # of iterations =  2.1

     negative rho (up, down):  0.000E+00 4.563E-04

     total cpu time spent up to now is    19932.4 secs

     total energy              =   -2125.94028013 Ry
     estimated scf accuracy    <       0.83413386 Ry

     total magnetization       =    18.61 Bohr mag/cell
     absolute magnetization    =    18.62 Bohr mag/cell

     iteration #  7     ecut=   100.00 Ry     beta= 0.40
     Davidson diagonalization with overlap
     ethr =  4.10E-04,  avg # of iterations =  1.0

     negative rho (up, down):  0.000E+00 6.063E-04

     total cpu time spent up to now is    22642.4 secs

     total energy              =   -2125.94497540 Ry
     estimated scf accuracy    <       0.38137837 Ry

     total magnetization       =    19.00 Bohr mag/cell
     absolute magnetization    =    19.01 Bohr mag/cell

     iteration #  8     ecut=   100.00 Ry     beta= 0.40
     Davidson diagonalization with overlap
     ethr =  2.02E-04,  avg # of iterations =  1.9

     negative rho (up, down):  0.000E+00 8.696E-04

     total cpu time spent up to now is    25431.9 secs

     total energy              =   -2125.93430491 Ry
     estimated scf accuracy    <       0.22347151 Ry

     total magnetization       =    19.00 Bohr mag/cell
     absolute magnetization    =    19.02 Bohr mag/cell

     iteration #  9     ecut=   100.00 Ry     beta= 0.40
     Davidson diagonalization with overlap
     c_bands:  1 eigenvalues not converged
     c_bands:  1 eigenvalues not converged
     ethr =  1.18E-04,  avg # of iterations =  9.9

     negative rho (up, down):  0.000E+00 9.496E-04

     total cpu time spent up to now is    29042.6 secs

     total energy              =   -2125.95268956 Ry
     estimated scf accuracy    <       0.11605524 Ry

     total magnetization       =    19.00 Bohr mag/cell
     absolute magnetization    =    19.02 Bohr mag/cell

     iteration # 10     ecut=   100.00 Ry     beta= 0.40
     Davidson diagonalization with overlap
     c_bands:  1 eigenvalues not converged
     c_bands:  2 eigenvalues not converged
     c_bands:  1 eigenvalues not converged
     c_bands:  1 eigenvalues not converged
     c_bands:  1 eigenvalues not converged
     c_bands:  1 eigenvalues not converged
     ethr =  6.14E-05,  avg # of iterations =  5.2

     negative rho (up, down):  0.000E+00 9.218E-04

     total cpu time spent up to now is    32158.9 secs

     total energy              =   -2125.95144889 Ry
     estimated scf accuracy    <       0.19316622 Ry

     total magnetization       =    19.00 Bohr mag/cell
     absolute magnetization    =    19.03 Bohr mag/cell

     iteration # 11     ecut=   100.00 Ry     beta= 0.40
     Davidson diagonalization with overlap
     ethr =  6.14E-05,  avg # of iterations =  1.1

     negative rho (up, down):  0.000E+00 8.904E-04

     total cpu time spent up to now is    34873.0 secs

     total energy              =   -2125.95006037 Ry
     estimated scf accuracy    <       0.08527102 Ry

     total magnetization       =    19.00 Bohr mag/cell
     absolute magnetization    =    19.04 Bohr mag/cell

     iteration # 12     ecut=   100.00 Ry     beta= 0.40
     Davidson diagonalization with overlap
     c_bands:  1 eigenvalues not converged
     ethr =  4.51E-05,  avg # of iterations =  1.6

     negative rho (up, down):  0.000E+00 8.925E-04

     total cpu time spent up to now is    37632.8 secs

     total energy              =   -2125.95268260 Ry
     estimated scf accuracy    <       0.00248136 Ry

     total magnetization       =    19.00 Bohr mag/cell
     absolute magnetization    =    19.04 Bohr mag/cell

     iteration # 13     ecut=   100.00 Ry     beta= 0.40
     Davidson diagonalization with overlap
     c_bands:  1 eigenvalues not converged
     c_bands:  1 eigenvalues not converged
     c_bands:  1 eigenvalues not converged
     c_bands:  1 eigenvalues not converged
     c_bands:  1 eigenvalues not converged
     c_bands:  2 eigenvalues not converged
     c_bands:  1 eigenvalues not converged
     c_bands:  1 eigenvalues not converged
     c_bands:  1 eigenvalues not converged
     c_bands:  1 eigenvalues not converged
     c_bands:  1 eigenvalues not converged
     c_bands:  1 eigenvalues not converged
     c_bands:  1 eigenvalues not converged
     c_bands:  1 eigenvalues not converged
     c_bands:  1 eigenvalues not converged
     c_bands:  1 eigenvalues not converged
     c_bands:  1 eigenvalues not converged
     c_bands:  2 eigenvalues not converged
     c_bands:  1 eigenvalues not converged
     c_bands:  1 eigenvalues not converged
     c_bands:  1 eigenvalues not converged
     c_bands:  1 eigenvalues not converged
     c_bands:  1 eigenvalues not converged
     c_bands:  2 eigenvalues not converged
     c_bands:  1 eigenvalues not converged
     c_bands:  1 eigenvalues not converged
     c_bands:  1 eigenvalues not converged
     c_bands:  3 eigenvalues not converged
     c_bands:  1 eigenvalues not converged
     c_bands:  1 eigenvalues not converged
     c_bands:  1 eigenvalues not converged
     c_bands:  1 eigenvalues not converged
     c_bands:  2 eigenvalues not converged
     c_bands:  1 eigenvalues not converged
     c_bands:  2 eigenvalues not converged
     c_bands:  1 eigenvalues not converged
     c_bands:  1 eigenvalues not converged
     c_bands:  1 eigenvalues not converged
     c_bands:  2 eigenvalues not converged
     c_bands:  1 eigenvalues not converged
     c_bands:  1 eigenvalues not converged
     c_bands:  1 eigenvalues not converged
     c_bands:  1 eigenvalues not converged
     c_bands:  1 eigenvalues not converged
     c_bands:  3 eigenvalues not converged
     c_bands:  2 eigenvalues not converged
     c_bands:  1 eigenvalues not converged
     c_bands:  1 eigenvalues not converged
     c_bands:  1 eigenvalues not converged
     c_bands:  1 eigenvalues not converged
     c_bands:  1 eigenvalues not converged
     c_bands:  1 eigenvalues not converged
     c_bands:  1 eigenvalues not converged
     c_bands:  2 eigenvalues not converged
     c_bands:  1 eigenvalues not converged
     c_bands:  1 eigenvalues not converged
     c_bands:  1 eigenvalues not converged
     c_bands:  1 eigenvalues not converged
     c_bands:  1 eigenvalues not converged
     c_bands:  1 eigenvalues not converged
     c_bands:  1 eigenvalues not converged
     c_bands:  1 eigenvalues not converged
     c_bands:  1 eigenvalues not converged
     c_bands:  2 eigenvalues not converged
     c_bands:  1 eigenvalues not converged
     c_bands:  1 eigenvalues not converged
     c_bands:  1 eigenvalues not converged
     c_bands:  2 eigenvalues not converged
     c_bands:  1 eigenvalues not converged
     c_bands:  1 eigenvalues not converged
     c_bands:  1 eigenvalues not converged
     c_bands:  1 eigenvalues not converged
     c_bands:  1 eigenvalues not converged
     c_bands:  1 eigenvalues not converged
     c_bands:  2 eigenvalues not converged
     c_bands:  2 eigenvalues not converged
     c_bands:  1 eigenvalues not converged
     c_bands:  1 eigenvalues not converged
     c_bands:  1 eigenvalues not converged
     c_bands:  1 eigenvalues not converged
     c_bands:  2 eigenvalues not converged
     c_bands:  1 eigenvalues not converged
     c_bands:  1 eigenvalues not converged
     c_bands:  1 eigenvalues not converged
     c_bands:  1 eigenvalues not converged
     c_bands:  1 eigenvalues not converged
     c_bands:  1 eigenvalues not converged
     c_bands:  1 eigenvalues not converged
     c_bands:  1 eigenvalues not converged
     ethr =  1.31E-06,  avg # of iterations = 15.9

     negative rho (up, down):  0.000E+00 8.847E-04

     total cpu time spent up to now is    43580.1 secs

     total energy              =   -2125.95352532 Ry
     estimated scf accuracy    <       0.00281356 Ry

     total magnetization       =    19.00 Bohr mag/cell
     absolute magnetization    =    19.05 Bohr mag/cell

     iteration # 14     ecut=   100.00 Ry     beta= 0.40
     Davidson diagonalization with overlap
     c_bands:  1 eigenvalues not converged
     c_bands:  1 eigenvalues not converged
     c_bands:  1 eigenvalues not converged
     c_bands:  1 eigenvalues not converged
     c_bands:  1 eigenvalues not converged
     c_bands:  1 eigenvalues not converged
     c_bands:  1 eigenvalues not converged
     ethr =  1.31E-06,  avg # of iterations =  2.4

     negative rho (up, down):  0.000E+00 8.804E-04

     total cpu time spent up to now is    46399.1 secs

     total energy              =   -2125.95357390 Ry
     estimated scf accuracy    <       0.00733506 Ry

     total magnetization       =    19.00 Bohr mag/cell
     absolute magnetization    =    19.05 Bohr mag/cell

     iteration # 15     ecut=   100.00 Ry     beta= 0.40
     Davidson diagonalization with overlap
     c_bands:  1 eigenvalues not converged
     ethr =  1.31E-06,  avg # of iterations =  1.1

     negative rho (up, down):  0.000E+00 8.836E-04

     total cpu time spent up to now is    49115.5 secs

     total energy              =   -2125.95374517 Ry
     estimated scf accuracy    <       0.00035435 Ry

     total magnetization       =    19.00 Bohr mag/cell
     absolute magnetization    =    19.05 Bohr mag/cell

     iteration # 16     ecut=   100.00 Ry     beta= 0.40
     Davidson diagonalization with overlap
     ethr =  1.87E-07,  avg # of iterations =  1.1

     negative rho (up, down):  0.000E+00 8.812E-04

     total cpu time spent up to now is    51825.1 secs

     total energy              =   -2125.95376231 Ry
     estimated scf accuracy    <       0.00058183 Ry

     total magnetization       =    19.00 Bohr mag/cell
     absolute magnetization    =    19.05 Bohr mag/cell

     iteration # 17     ecut=   100.00 Ry     beta= 0.40
     Davidson diagonalization with overlap
     ethr =  1.87E-07,  avg # of iterations =  1.0

     negative rho (up, down):  0.000E+00 8.804E-04

     total cpu time spent up to now is    54532.1 secs

     total energy              =   -2125.95377646 Ry
     estimated scf accuracy    <       0.00000251 Ry

     total magnetization       =    19.00 Bohr mag/cell
     absolute magnetization    =    19.05 Bohr mag/cell

     iteration # 18     ecut=   100.00 Ry     beta= 0.40
     Davidson diagonalization with overlap
     ethr =  1.33E-09,  avg # of iterations =  7.2

     negative rho (up, down):  0.000E+00 8.786E-04

     total cpu time spent up to now is    61224.4 secs

     total energy              =   -2125.95378178 Ry
     estimated scf accuracy    <       0.00000103 Ry

     total magnetization       =    19.00 Bohr mag/cell
     absolute magnetization    =    19.05 Bohr mag/cell

     iteration # 19     ecut=   100.00 Ry     beta= 0.40
     Davidson diagonalization with overlap
     ethr =  5.46E-10,  avg # of iterations =  2.0

     negative rho (up, down):  0.000E+00 8.784E-04

     total cpu time spent up to now is    64508.8 secs

     total energy              =   -2125.95378246 Ry
     estimated scf accuracy    <       0.00000159 Ry

     total magnetization       =    19.00 Bohr mag/cell
     absolute magnetization    =    19.05 Bohr mag/cell

     iteration # 20     ecut=   100.00 Ry     beta= 0.40
     Davidson diagonalization with overlap
     ethr =  5.46E-10,  avg # of iterations =  2.0

     negative rho (up, down):  0.000E+00 8.784E-04

     total cpu time spent up to now is    67352.1 secs

     total energy              =   -2125.95378280 Ry
     estimated scf accuracy    <       0.00000076 Ry

     total magnetization       =    19.00 Bohr mag/cell
     absolute magnetization    =    19.05 Bohr mag/cell

     iteration # 21     ecut=   100.00 Ry     beta= 0.40
     Davidson diagonalization with overlap
     ethr =  4.04E-10,  avg # of iterations =  2.0

     negative rho (up, down):  0.000E+00 8.788E-04

     total cpu time spent up to now is    70228.5 secs

     total energy              =   -2125.95378292 Ry
     estimated scf accuracy    <       0.00000034 Ry

     total magnetization       =    19.00 Bohr mag/cell
     absolute magnetization    =    19.05 Bohr mag/cell

     iteration # 22     ecut=   100.00 Ry     beta= 0.40
     Davidson diagonalization with overlap
     ethr =  1.79E-10,  avg # of iterations =  2.0

     negative rho (up, down):  0.000E+00 8.789E-04

     total cpu time spent up to now is    73238.0 secs

     total energy              =   -2125.95378309 Ry
     estimated scf accuracy    <       0.00000016 Ry

     total magnetization       =    19.00 Bohr mag/cell
     absolute magnetization    =    19.05 Bohr mag/cell

     iteration # 23     ecut=   100.00 Ry     beta= 0.40
     Davidson diagonalization with overlap
     ethr =  8.63E-11,  avg # of iterations =  1.2

     negative rho (up, down):  0.000E+00 8.791E-04

     total cpu time spent up to now is    75966.7 secs

     total energy              =   -2125.95378311 Ry
     estimated scf accuracy    <       0.00000002 Ry

     total magnetization       =    19.00 Bohr mag/cell
     absolute magnetization    =    19.05 Bohr mag/cell

     iteration # 24     ecut=   100.00 Ry     beta= 0.40
     Davidson diagonalization with overlap
     ethr =  1.32E-11,  avg # of iterations =  4.3

     negative rho (up, down):  0.000E+00 8.792E-04

     total cpu time spent up to now is    79798.2 secs

     total energy              =   -2125.95378316 Ry
     estimated scf accuracy    <       0.00000001 Ry

     total magnetization       =    19.00 Bohr mag/cell
     absolute magnetization    =    19.05 Bohr mag/cell

     iteration # 25     ecut=   100.00 Ry     beta= 0.40
     Davidson diagonalization with overlap
     ethr =  6.89E-12,  avg # of iterations =  2.0

     negative rho (up, down):  0.000E+00 8.791E-04

     total cpu time spent up to now is    83027.3 secs

     total energy              =   -2125.95378318 Ry
     estimated scf accuracy    <          3.6E-09 Ry

     total magnetization       =    19.00 Bohr mag/cell
     absolute magnetization    =    19.05 Bohr mag/cell

     iteration # 26     ecut=   100.00 Ry     beta= 0.40
     Davidson diagonalization with overlap
     ethr =  1.88E-12,  avg # of iterations =  3.3

     negative rho (up, down):  0.000E+00 8.791E-04

     total cpu time spent up to now is    86328.3 secs

     total energy              =   -2125.95378318 Ry
     estimated scf accuracy    <          7.1E-10 Ry

     total magnetization       =    19.00 Bohr mag/cell
     absolute magnetization    =    19.05 Bohr mag/cell

     iteration # 27     ecut=   100.00 Ry     beta= 0.40
     Davidson diagonalization with overlap
     ethr =  3.74E-13,  avg # of iterations =  3.8

     negative rho (up, down):  0.000E+00 8.791E-04

     total cpu time spent up to now is    90334.1 secs

     total energy              =   -2125.95378318 Ry
     estimated scf accuracy    <          4.5E-10 Ry

     total magnetization       =    19.00 Bohr mag/cell
     absolute magnetization    =    19.05 Bohr mag/cell

     iteration # 28     ecut=   100.00 Ry     beta= 0.40
     Davidson diagonalization with overlap
     ethr =  2.39E-13,  avg # of iterations =  1.6

     negative rho (up, down):  0.000E+00 8.791E-04

     Magnetic moment per site:
     atom:    1    charge:    7.8578    magn:    0.0008    constr:    0.0000
     atom:    2    charge:   12.9535    magn:    3.6379    constr:    0.0000
     atom:    3    charge:   12.9570    magn:    3.6271    constr:    0.0000
     atom:    4    charge:   12.9535    magn:    3.6379    constr:    0.0000
     atom:    5    charge:   12.9570    magn:    3.6271    constr:    0.0000
     atom:    6    charge:    0.8813    magn:    0.0099    constr:    0.0000
     atom:    7    charge:    0.8682    magn:    0.0108    constr:    0.0000
     atom:    8    charge:    0.8813    magn:    0.0099    constr:    0.0000
     atom:    9    charge:    0.8682    magn:    0.0108    constr:    0.0000
     atom:   10    charge:    4.2984    magn:    0.1500    constr:    0.0000
     atom:   11    charge:    4.3155    magn:    0.1131    constr:    0.0000
     atom:   12    charge:    4.2984    magn:    0.1500    constr:    0.0000
     atom:   13    charge:    4.3155    magn:    0.1131    constr:    0.0000
     atom:   14    charge:    4.3108    magn:    0.1202    constr:    0.0000
     atom:   15    charge:    4.3272    magn:    0.0904    constr:    0.0000
     atom:   16    charge:    4.3108    magn:    0.1202    constr:    0.0000
     atom:   17    charge:    4.3272    magn:    0.0904    constr:    0.0000
     atom:   18    charge:    4.3112    magn:    0.1423    constr:    0.0000
     atom:   19    charge:    4.3023    magn:    0.1438    constr:    0.0000
     atom:   20    charge:    4.3098    magn:    0.1264    constr:    0.0000
     atom:   21    charge:    4.3138    magn:    0.1581    constr:    0.0000
     atom:   22    charge:    4.3112    magn:    0.1423    constr:    0.0000
     atom:   23    charge:    4.3022    magn:    0.1438    constr:    0.0000
     atom:   24    charge:    4.3099    magn:    0.1264    constr:    0.0000
     atom:   25    charge:    4.3137    magn:    0.1581    constr:    0.0000

     total cpu time spent up to now is    93124.7 secs

     End of self-consistent calculation

 ------ SPIN UP ------------


          k = 0.0000 0.0000 0.0000 ( 38251 PWs)   bands (ev):

   -85.6830 -85.6815 -85.6688 -85.6684 -51.8836 -51.8832 -51.7528 -51.7512
   -51.6832 -51.6820 -51.6051 -51.6049 -51.6035 -51.6022 -51.5040 -51.5037
   -45.8762 -17.9881 -17.8781 -17.8138 -16.4510 -16.2576 -16.2115 -15.9975
   -14.1972 -14.0986 -14.0734 -14.0014 -13.9145 -13.8995 -13.7827 -13.7416
   -13.7141 -13.7089 -13.6175 -13.5898  -4.7300  -4.4024  -3.9882  -3.9030
    -2.5676  -2.5069  -2.1273  -2.0719  -1.8378  -1.6687  -1.6645  -1.5370
    -1.4990  -1.4009  -1.3095  -1.2166  -0.6250  -0.5475  -0.2526  -0.0962
    -0.0723   0.0000   0.0592   0.1189   0.3210   0.3434   0.5019   0.5779
     0.7876   0.8254   0.9078   0.9258   1.0507   1.1227   1.3376   1.3830
     1.4831   1.5567   1.5751   1.6994   1.7963   1.8460   1.9034   1.9423
     2.0632   2.2728   2.3043   2.3384   2.5074   2.5331   2.5991   2.7210
     2.7516   2.9736   3.0253   3.0739   3.1911   3.2874   3.3724   3.4854
     3.5205   3.5308   3.6638   3.6894   3.7442   3.8325   4.2175   4.2239
     8.1021   9.8989  10.3182  10.8376  11.2172  12.1393  12.2437  12.3213
    12.3939  12.4924

     occupation numbers 
     1.0000   1.0000   1.0000   1.0000   1.0000   1.0000   1.0000   1.0000
     1.0000   1.0000   1.0000   1.0000   1.0000   1.0000   1.0000   1.0000
     1.0000   1.0000   1.0000   1.0000   1.0000   1.0000   1.0000   1.0000
     1.0000   1.0000   1.0000   1.0000   1.0000   1.0000   1.0000   1.0000
     1.0000   1.0000   1.0000   1.0000   1.0000   1.0000   1.0000   1.0000
     1.0000   1.0000   1.0000   1.0000   1.0000   1.0000   1.0000   1.0000
     1.0000   1.0000   1.0000   1.0000   1.0000   1.0000   1.0000   1.0000
     1.0000   1.0000   1.0000   1.0000   1.0000   1.0000   1.0000   1.0000
     1.0000   1.0000   1.0000   1.0000   1.0000   1.0000   1.0000   1.0000
     1.0000   1.0000   1.0000   1.0000   1.0000   1.0000   1.0000   1.0000
     1.0000   1.0000   1.0000   1.0000   1.0000   1.0000   1.0000   1.0000
     1.0000   1.0000   1.0000   1.0000   1.0000   1.0000   1.0000   1.0000
     1.0000   1.0000   1.0000   1.0000   1.0000   1.0000   1.0000   1.0000
     0.0000   0.0000   0.0000   0.0000   0.0000   0.0000   0.0000   0.0000
     0.0000   0.0000

          k = 0.0000 0.0000 0.2337 ( 38277 PWs)   bands (ev):

   -85.6830 -85.6815 -85.6688 -85.6684 -51.8836 -51.8832 -51.7528 -51.7512
   -51.6832 -51.6820 -51.6051 -51.6049 -51.6035 -51.6022 -51.5040 -51.5037
   -45.8762 -17.9881 -17.8781 -17.8139 -16.4371 -16.2530 -16.2020 -15.9998
   -14.2068 -14.1217 -14.0577 -14.0000 -13.9166 -13.8965 -13.7955 -13.7595
   -13.7123 -13.7065 -13.6262 -13.5891  -4.7013  -4.3904  -4.0047  -3.8733
    -2.5476  -2.4908  -2.1460  -2.0454  -1.8331  -1.6704  -1.6289  -1.5628
    -1.4564  -1.4177  -1.3294  -1.2043  -0.6120  -0.5445  -0.2521  -0.1218
    -0.0751  -0.0088   0.0961   0.1066   0.3189   0.3674   0.5085   0.5410
     0.7122   0.8609   0.9007   0.9646   1.0295   1.1791   1.3050   1.3774
     1.4722   1.5330   1.6364   1.6794   1.7466   1.7948   1.9105   1.9873
     2.0526   2.2630   2.3100   2.3204   2.4869   2.4981   2.6079   2.6956
     2.7533   2.9648   3.0318   3.0965   3.1579   3.2867   3.3842   3.4355
     3.5029   3.5347   3.6555   3.7096   3.7422   3.8451   4.2112   4.2326
     8.2428   9.9612  10.3640  10.8602  11.2668  12.0328  12.2241  12.3236
    12.3931  12.4643

     occupation numbers 
     1.0000   1.0000   1.0000   1.0000   1.0000   1.0000   1.0000   1.0000
     1.0000   1.0000   1.0000   1.0000   1.0000   1.0000   1.0000   1.0000
     1.0000   1.0000   1.0000   1.0000   1.0000   1.0000   1.0000   1.0000
     1.0000   1.0000   1.0000   1.0000   1.0000   1.0000   1.0000   1.0000
     1.0000   1.0000   1.0000   1.0000   1.0000   1.0000   1.0000   1.0000
     1.0000   1.0000   1.0000   1.0000   1.0000   1.0000   1.0000   1.0000
     1.0000   1.0000   1.0000   1.0000   1.0000   1.0000   1.0000   1.0000
     1.0000   1.0000   1.0000   1.0000   1.0000   1.0000   1.0000   1.0000
     1.0000   1.0000   1.0000   1.0000   1.0000   1.0000   1.0000   1.0000
     1.0000   1.0000   1.0000   1.0000   1.0000   1.0000   1.0000   1.0000
     1.0000   1.0000   1.0000   1.0000   1.0000   1.0000   1.0000   1.0000
     1.0000   1.0000   1.0000   1.0000   1.0000   1.0000   1.0000   1.0000
     1.0000   1.0000   1.0000   1.0000   1.0000   1.0000   1.0000   1.0000
     0.0000   0.0000   0.0000   0.0000   0.0000   0.0000   0.0000   0.0000
     0.0000   0.0000

          k = 0.0000 0.0000 0.4675 ( 38350 PWs)   bands (ev):

   -85.6830 -85.6815 -85.6688 -85.6684 -51.8836 -51.8832 -51.7528 -51.7512
   -51.6832 -51.6820 -51.6051 -51.6049 -51.6035 -51.6022 -51.5040 -51.5037
   -45.8762 -17.9882 -17.8781 -17.8142 -16.3995 -16.2405 -16.1775 -16.0084
   -14.2326 -14.1594 -14.0385 -13.9986 -13.9216 -13.8945 -13.8139 -13.7878
   -13.7199 -13.7086 -13.6449 -13.5923  -4.6267  -4.3590  -4.0155  -3.8359
    -2.5222  -2.4254  -2.1327  -2.0313  -1.8233  -1.6614  -1.6144  -1.5255
    -1.4546  -1.4058  -1.3410  -1.2079  -0.6007  -0.5159  -0.2305  -0.1603
    -0.0544  -0.0268   0.0877   0.1633   0.3285   0.3945   0.4568   0.5400
     0.6763   0.8396   0.8959   0.9778   1.0447   1.1720   1.3056   1.3446
     1.3833   1.5387   1.5976   1.6645   1.6982   1.8126   1.9064   1.9745
     2.0628   2.2023   2.2661   2.3083   2.3559   2.4758   2.6429   2.6996
     2.7654   2.9597   3.0458   3.0800   3.1284   3.3078   3.3591   3.4111
     3.4770   3.5145   3.6224   3.7238   3.7654   3.8696   4.2042   4.2402
     8.6184  10.1199  10.4647  10.9244  11.4031  11.7466  12.1581  12.2764
    12.3182  12.4665

     occupation numbers 
     1.0000   1.0000   1.0000   1.0000   1.0000   1.0000   1.0000   1.0000
     1.0000   1.0000   1.0000   1.0000   1.0000   1.0000   1.0000   1.0000
     1.0000   1.0000   1.0000   1.0000   1.0000   1.0000   1.0000   1.0000
     1.0000   1.0000   1.0000   1.0000   1.0000   1.0000   1.0000   1.0000
     1.0000   1.0000   1.0000   1.0000   1.0000   1.0000   1.0000   1.0000
     1.0000   1.0000   1.0000   1.0000   1.0000   1.0000   1.0000   1.0000
     1.0000   1.0000   1.0000   1.0000   1.0000   1.0000   1.0000   1.0000
     1.0000   1.0000   1.0000   1.0000   1.0000   1.0000   1.0000   1.0000
     1.0000   1.0000   1.0000   1.0000   1.0000   1.0000   1.0000   1.0000
     1.0000   1.0000   1.0000   1.0000   1.0000   1.0000   1.0000   1.0000
     1.0000   1.0000   1.0000   1.0000   1.0000   1.0000   1.0000   1.0000
     1.0000   1.0000   1.0000   1.0000   1.0000   1.0000   1.0000   1.0000
     1.0000   1.0000   1.0000   1.0000   1.0000   1.0000   1.0000   1.0000
     0.0000   0.0000   0.0000   0.0000   0.0000   0.0000   0.0000   0.0000
     0.0000   0.0000

          k = 0.0000 0.0000 0.7012 ( 38330 PWs)   bands (ev):

   -85.6830 -85.6815 -85.6688 -85.6684 -51.8836 -51.8832 -51.7529 -51.7512
   -51.6832 -51.6820 -51.6051 -51.6049 -51.6035 -51.6022 -51.5040 -51.5037
   -45.8762 -17.9883 -17.8782 -17.8146 -16.3513 -16.2245 -16.1479 -16.0261
   -14.2636 -14.1974 -14.0215 -13.9987 -13.9294 -13.9094 -13.8205 -13.7976
   -13.7313 -13.7197 -13.6599 -13.6060  -4.5380  -4.3207  -4.0037  -3.8305
    -2.4988  -2.3471  -2.0708  -2.0354  -1.8249  -1.6528  -1.6422  -1.5052
    -1.4250  -1.3916  -1.3064  -1.2408  -0.6004  -0.4765  -0.1807  -0.0997
    -0.0720  -0.0070   0.1103   0.1917   0.3769   0.3978   0.4586   0.5054
     0.7042   0.7889   0.8642   0.9350   1.0469   1.0720   1.1975   1.2843
     1.3806   1.4540   1.5733   1.6390   1.7381   1.8548   1.8727   1.9012
     2.0773   2.1167   2.1512   2.2087   2.3647   2.5275   2.6663   2.7250
     2.8024   2.9290   3.0156   3.0538   3.1566   3.3300   3.3759   3.4185
     3.4533   3.4868   3.5655   3.7048   3.8036   3.8987   4.1986   4.2395
     9.1285  10.2739  10.5596  11.0003  11.2821  11.7235  12.0418  12.1632
    12.2116  12.4484

     occupation numbers 
     1.0000   1.0000   1.0000   1.0000   1.0000   1.0000   1.0000   1.0000
     1.0000   1.0000   1.0000   1.0000   1.0000   1.0000   1.0000   1.0000
     1.0000   1.0000   1.0000   1.0000   1.0000   1.0000   1.0000   1.0000
     1.0000   1.0000   1.0000   1.0000   1.0000   1.0000   1.0000   1.0000
     1.0000   1.0000   1.0000   1.0000   1.0000   1.0000   1.0000   1.0000
     1.0000   1.0000   1.0000   1.0000   1.0000   1.0000   1.0000   1.0000
     1.0000   1.0000   1.0000   1.0000   1.0000   1.0000   1.0000   1.0000
     1.0000   1.0000   1.0000   1.0000   1.0000   1.0000   1.0000   1.0000
     1.0000   1.0000   1.0000   1.0000   1.0000   1.0000   1.0000   1.0000
     1.0000   1.0000   1.0000   1.0000   1.0000   1.0000   1.0000   1.0000
     1.0000   1.0000   1.0000   1.0000   1.0000   1.0000   1.0000   1.0000
     1.0000   1.0000   1.0000   1.0000   1.0000   1.0000   1.0000   1.0000
     1.0000   1.0000   1.0000   1.0000   1.0000   1.0000   1.0000   1.0000
     0.0000   0.0000   0.0000   0.0000   0.0000   0.0000   0.0000   0.0000
     0.0000   0.0000

          k = 0.0000 0.0000 0.9349 ( 38332 PWs)   bands (ev):

   -85.6830 -85.6815 -85.6688 -85.6684 -51.8836 -51.8832 -51.7529 -51.7512
   -51.6832 -51.6820 -51.6051 -51.6049 -51.6035 -51.6022 -51.5040 -51.5037
   -45.8762 -17.9884 -17.8782 -17.8148 -16.3154 -16.2122 -16.1247 -16.0469
   -14.2839 -14.2224 -14.0095 -13.9991 -13.9402 -13.9207 -13.8425 -13.7659
   -13.7410 -13.7342 -13.6658 -13.6233  -4.4780  -4.2936  -3.9782  -3.8527
    -2.4764  -2.3037  -2.0385  -2.0077  -1.8404  -1.6732  -1.6401  -1.5289
    -1.3970  -1.3668  -1.2818  -1.2603  -0.6006  -0.4465  -0.1666  -0.0911
     0.0209   0.0434   0.2048   0.2209   0.3487   0.4066   0.4679   0.5249
     0.6960   0.7200   0.7898   0.8948   0.9376   0.9878   1.1251   1.3121
     1.4062   1.4144   1.5311   1.5941   1.7414   1.7940   1.8177   1.9354
     2.0576   2.0734   2.1484   2.1944   2.3501   2.5797   2.6447   2.7677
     2.8279   2.8709   3.0061   3.0405   3.2460   3.3331   3.3853   3.4136
     3.4421   3.4705   3.5123   3.6925   3.8222   3.9208   4.1955   4.2351
     9.6475  10.1953  10.6698  10.9033  11.1441  11.9379  11.9611  12.0558
    12.1725  12.3590

     occupation numbers 
     1.0000   1.0000   1.0000   1.0000   1.0000   1.0000   1.0000   1.0000
     1.0000   1.0000   1.0000   1.0000   1.0000   1.0000   1.0000   1.0000
     1.0000   1.0000   1.0000   1.0000   1.0000   1.0000   1.0000   1.0000
     1.0000   1.0000   1.0000   1.0000   1.0000   1.0000   1.0000   1.0000
     1.0000   1.0000   1.0000   1.0000   1.0000   1.0000   1.0000   1.0000
     1.0000   1.0000   1.0000   1.0000   1.0000   1.0000   1.0000   1.0000
     1.0000   1.0000   1.0000   1.0000   1.0000   1.0000   1.0000   1.0000
     1.0000   1.0000   1.0000   1.0000   1.0000   1.0000   1.0000   1.0000
     1.0000   1.0000   1.0000   1.0000   1.0000   1.0000   1.0000   1.0000
     1.0000   1.0000   1.0000   1.0000   1.0000   1.0000   1.0000   1.0000
     1.0000   1.0000   1.0000   1.0000   1.0000   1.0000   1.0000   1.0000
     1.0000   1.0000   1.0000   1.0000   1.0000   1.0000   1.0000   1.0000
     1.0000   1.0000   1.0000   1.0000   1.0000   1.0000   1.0000   1.0000
     0.0000   0.0000   0.0000   0.0000   0.0000   0.0000   0.0000   0.0000
     0.0000   0.0000

          k = 0.0000 0.2391 0.0000 ( 38300 PWs)   bands (ev):

   -85.6830 -85.6815 -85.6688 -85.6684 -51.8836 -51.8832 -51.7528 -51.7512
   -51.6832 -51.6820 -51.6051 -51.6049 -51.6035 -51.6023 -51.5040 -51.5037
   -45.8762 -17.9895 -17.8788 -17.8137 -16.4332 -16.2525 -16.2083 -16.0118
   -14.2172 -14.0897 -14.0799 -14.0017 -13.9551 -13.8746 -13.7863 -13.7366
   -13.7154 -13.6999 -13.6185 -13.5838  -4.6936  -4.3696  -4.0008  -3.9001
    -2.5486  -2.4736  -2.1237  -2.0580  -1.8434  -1.7006  -1.6458  -1.5112
    -1.4957  -1.4064  -1.3157  -1.1954  -0.6317  -0.5675  -0.2701  -0.2081
    -0.0356  -0.0121   0.0637   0.0967   0.2954   0.3623   0.5395   0.5826
     0.7722   0.8214   0.8606   0.9409   1.0887   1.1333   1.2893   1.3628
     1.4497   1.5129   1.6267   1.6717   1.7673   1.8022   1.8796   2.0005
     2.0767   2.2486   2.2846   2.3211   2.4902   2.5306   2.6300   2.7490
     2.7829   2.8864   3.0264   3.1243   3.1590   3.2534   3.3571   3.4319
     3.4945   3.5580   3.6352   3.6946   3.8401   3.9461   4.2193   4.2461
     8.2568   9.9697  10.4107  10.7561  11.2322  12.0176  12.1902  12.3362
    12.3413  12.5102

     occupation numbers 
     1.0000   1.0000   1.0000   1.0000   1.0000   1.0000   1.0000   1.0000
     1.0000   1.0000   1.0000   1.0000   1.0000   1.0000   1.0000   1.0000
     1.0000   1.0000   1.0000   1.0000   1.0000   1.0000   1.0000   1.0000
     1.0000   1.0000   1.0000   1.0000   1.0000   1.0000   1.0000   1.0000
     1.0000   1.0000   1.0000   1.0000   1.0000   1.0000   1.0000   1.0000
     1.0000   1.0000   1.0000   1.0000   1.0000   1.0000   1.0000   1.0000
     1.0000   1.0000   1.0000   1.0000   1.0000   1.0000   1.0000   1.0000
     1.0000   1.0000   1.0000   1.0000   1.0000   1.0000   1.0000   1.0000
     1.0000   1.0000   1.0000   1.0000   1.0000   1.0000   1.0000   1.0000
     1.0000   1.0000   1.0000   1.0000   1.0000   1.0000   1.0000   1.0000
     1.0000   1.0000   1.0000   1.0000   1.0000   1.0000   1.0000   1.0000
     1.0000   1.0000   1.0000   1.0000   1.0000   1.0000   1.0000   1.0000
     1.0000   1.0000   1.0000   1.0000   1.0000   1.0000   1.0000   1.0000
     0.0000   0.0000   0.0000   0.0000   0.0000   0.0000   0.0000   0.0000
     0.0000   0.0000

          k = 0.0000 0.2391 0.2337 ( 38294 PWs)   bands (ev):

   -85.6830 -85.6815 -85.6688 -85.6684 -51.8836 -51.8832 -51.7528 -51.7512
   -51.6832 -51.6820 -51.6051 -51.6049 -51.6035 -51.6023 -51.5040 -51.5037
   -45.8762 -17.9898 -17.8789 -17.8139 -16.4190 -16.2397 -16.2038 -16.0163
   -14.2249 -14.1213 -14.0612 -13.9946 -13.9595 -13.8848 -13.7754 -13.7709
   -13.7130 -13.6985 -13.6248 -13.5796  -4.6699  -4.3630  -4.0106  -3.8593
    -2.5310  -2.4591  -2.1571  -2.0168  -1.8284  -1.6873  -1.6282  -1.5514
    -1.4786  -1.4095  -1.3376  -1.1650  -0.6034  -0.5717  -0.2518  -0.1882
    -0.0558  -0.0176   0.0791   0.1376   0.2687   0.3425   0.5122   0.5544
     0.6511   0.8165   0.8666   0.9565   1.0625   1.1929   1.3046   1.3458
     1.4627   1.5684   1.5946   1.6670   1.7528   1.7949   1.9291   2.0114
     2.0627   2.2416   2.2561   2.3238   2.4610   2.5112   2.6197   2.6960
     2.7579   2.8787   3.0198   3.1388   3.1596   3.2777   3.3324   3.4111
     3.4912   3.5548   3.6700   3.6941   3.8485   3.9257   4.2081   4.2624
     8.3839  10.0316  10.4541  10.7758  11.3171  11.9696  12.1752  12.2908
    12.3909  12.4505

     occupation numbers 
     1.0000   1.0000   1.0000   1.0000   1.0000   1.0000   1.0000   1.0000
     1.0000   1.0000   1.0000   1.0000   1.0000   1.0000   1.0000   1.0000
     1.0000   1.0000   1.0000   1.0000   1.0000   1.0000   1.0000   1.0000
     1.0000   1.0000   1.0000   1.0000   1.0000   1.0000   1.0000   1.0000
     1.0000   1.0000   1.0000   1.0000   1.0000   1.0000   1.0000   1.0000
     1.0000   1.0000   1.0000   1.0000   1.0000   1.0000   1.0000   1.0000
     1.0000   1.0000   1.0000   1.0000   1.0000   1.0000   1.0000   1.0000
     1.0000   1.0000   1.0000   1.0000   1.0000   1.0000   1.0000   1.0000
     1.0000   1.0000   1.0000   1.0000   1.0000   1.0000   1.0000   1.0000
     1.0000   1.0000   1.0000   1.0000   1.0000   1.0000   1.0000   1.0000
     1.0000   1.0000   1.0000   1.0000   1.0000   1.0000   1.0000   1.0000
     1.0000   1.0000   1.0000   1.0000   1.0000   1.0000   1.0000   1.0000
     1.0000   1.0000   1.0000   1.0000   1.0000   1.0000   1.0000   1.0000
     0.0000   0.0000   0.0000   0.0000   0.0000   0.0000   0.0000   0.0000
     0.0000   0.0000

          k = 0.0000 0.2391 0.4675 ( 38323 PWs)   bands (ev):

   -85.6830 -85.6815 -85.6688 -85.6684 -51.8836 -51.8832 -51.7528 -51.7512
   -51.6832 -51.6820 -51.6051 -51.6049 -51.6035 -51.6023 -51.5040 -51.5037
   -45.8762 -17.9899 -17.8789 -17.8142 -16.3826 -16.2206 -16.1831 -16.0256
   -14.2471 -14.1554 -14.0512 -13.9990 -13.9512 -13.8990 -13.8083 -13.7778
   -13.7168 -13.7024 -13.6410 -13.5848  -4.5993  -4.3357  -4.0120  -3.8113
    -2.5036  -2.4148  -2.1344  -2.0048  -1.8171  -1.6826  -1.5877  -1.5546
    -1.4481  -1.4132  -1.3439  -1.1695  -0.6146  -0.5304  -0.2194  -0.1527
    -0.0898  -0.0123   0.1110   0.1505   0.2894   0.3270   0.4525   0.5600
     0.5792   0.7981   0.8447   0.9744   1.0249   1.1941   1.2697   1.3398
     1.4536   1.5323   1.6231   1.6649   1.7369   1.8027   1.9332   1.9967
     2.0488   2.1522   2.2543   2.2851   2.3816   2.4508   2.6333   2.6565
     2.7594   2.8780   3.0496   3.0690   3.1880   3.2774   3.3322   3.4081
     3.4593   3.5515   3.6491   3.7529   3.8504   3.9023   4.2037   4.2738
     8.7363  10.1901  10.5458  10.8544  11.4722  11.7931  12.1079  12.2040
    12.3130  12.4483

     occupation numbers 
     1.0000   1.0000   1.0000   1.0000   1.0000   1.0000   1.0000   1.0000
     1.0000   1.0000   1.0000   1.0000   1.0000   1.0000   1.0000   1.0000
     1.0000   1.0000   1.0000   1.0000   1.0000   1.0000   1.0000   1.0000
     1.0000   1.0000   1.0000   1.0000   1.0000   1.0000   1.0000   1.0000
     1.0000   1.0000   1.0000   1.0000   1.0000   1.0000   1.0000   1.0000
     1.0000   1.0000   1.0000   1.0000   1.0000   1.0000   1.0000   1.0000
     1.0000   1.0000   1.0000   1.0000   1.0000   1.0000   1.0000   1.0000
     1.0000   1.0000   1.0000   1.0000   1.0000   1.0000   1.0000   1.0000
     1.0000   1.0000   1.0000   1.0000   1.0000   1.0000   1.0000   1.0000
     1.0000   1.0000   1.0000   1.0000   1.0000   1.0000   1.0000   1.0000
     1.0000   1.0000   1.0000   1.0000   1.0000   1.0000   1.0000   1.0000
     1.0000   1.0000   1.0000   1.0000   1.0000   1.0000   1.0000   1.0000
     1.0000   1.0000   1.0000   1.0000   1.0000   1.0000   1.0000   1.0000
     0.0000   0.0000   0.0000   0.0000   0.0000   0.0000   0.0000   0.0000
     0.0000   0.0000

          k = 0.0000 0.2391 0.7012 ( 38349 PWs)   bands (ev):

   -85.6830 -85.6815 -85.6688 -85.6684 -51.8836 -51.8832 -51.7529 -51.7512
   -51.6832 -51.6820 -51.6051 -51.6049 -51.6036 -51.6023 -51.5040 -51.5037
   -45.8762 -17.9898 -17.8789 -17.8146 -16.3371 -16.2023 -16.1544 -16.0418
   -14.2748 -14.1905 -14.0420 -14.0049 -13.9486 -13.9131 -13.8296 -13.7798
   -13.7260 -13.7103 -13.6555 -13.6019  -4.5111  -4.2987  -3.9972  -3.7970
    -2.4876  -2.3471  -2.0674  -2.0074  -1.8202  -1.6919  -1.6059  -1.5278
    -1.4041  -1.3873  -1.3181  -1.2160  -0.6275  -0.4941  -0.1793  -0.0895
    -0.0527   0.0061   0.0885   0.1505   0.3486   0.3529   0.4356   0.5274
     0.6359   0.7516   0.8122   0.9157   1.0289   1.1167   1.1573   1.3310
     1.3706   1.4800   1.5830   1.6894   1.7413   1.8365   1.8734   1.9132
     2.0702   2.0953   2.1475   2.2573   2.3197   2.4963   2.6467   2.6843
     2.7610   2.8926   2.9954   3.0928   3.1638   3.2737   3.3497   3.4137
     3.4643   3.5417   3.6092   3.7989   3.8214   3.9189   4.1999   4.2770
     9.2187  10.3681  10.6006  10.9758  11.3310  11.8082  12.0570  12.1111
    12.1538  12.5047

     occupation numbers 
     1.0000   1.0000   1.0000   1.0000   1.0000   1.0000   1.0000   1.0000
     1.0000   1.0000   1.0000   1.0000   1.0000   1.0000   1.0000   1.0000
     1.0000   1.0000   1.0000   1.0000   1.0000   1.0000   1.0000   1.0000
     1.0000   1.0000   1.0000   1.0000   1.0000   1.0000   1.0000   1.0000
     1.0000   1.0000   1.0000   1.0000   1.0000   1.0000   1.0000   1.0000
     1.0000   1.0000   1.0000   1.0000   1.0000   1.0000   1.0000   1.0000
     1.0000   1.0000   1.0000   1.0000   1.0000   1.0000   1.0000   1.0000
     1.0000   1.0000   1.0000   1.0000   1.0000   1.0000   1.0000   1.0000
     1.0000   1.0000   1.0000   1.0000   1.0000   1.0000   1.0000   1.0000
     1.0000   1.0000   1.0000   1.0000   1.0000   1.0000   1.0000   1.0000
     1.0000   1.0000   1.0000   1.0000   1.0000   1.0000   1.0000   1.0000
     1.0000   1.0000   1.0000   1.0000   1.0000   1.0000   1.0000   1.0000
     1.0000   1.0000   1.0000   1.0000   1.0000   1.0000   1.0000   1.0000
     0.0000   0.0000   0.0000   0.0000   0.0000   0.0000   0.0000   0.0000
     0.0000   0.0000

          k = 0.0000 0.2391 0.9349 ( 38302 PWs)   bands (ev):

   -85.6830 -85.6815 -85.6688 -85.6684 -51.8836 -51.8832 -51.7529 -51.7512
   -51.6832 -51.6820 -51.6051 -51.6049 -51.6036 -51.6023 -51.5040 -51.5037
   -45.8762 -17.9894 -17.8788 -17.8148 -16.3030 -16.1957 -16.1302 -16.0568
   -14.2939 -14.2152 -14.0307 -14.0044 -13.9541 -13.9255 -13.8402 -13.7664
   -13.7359 -13.7207 -13.6622 -13.6214  -4.4445  -4.2671  -3.9767  -3.8246
    -2.4648  -2.3034  -2.0241  -1.9944  -1.8368  -1.6977  -1.6281  -1.5347
    -1.3867  -1.3533  -1.2751  -1.2518  -0.6377  -0.4714  -0.1701  -0.0627
    -0.0235   0.0413   0.1079   0.2281   0.3712   0.4151   0.4587   0.5095
     0.6787   0.7012   0.7628   0.8682   0.9444   1.0018   1.1239   1.3361
     1.3675   1.4334   1.5219   1.5824   1.7637   1.8105   1.8252   1.9086
     2.0448   2.0829   2.1685   2.1899   2.3187   2.5593   2.6655   2.7115
     2.7386   2.8766   2.9903   3.0901   3.1709   3.3047   3.3527   3.4239
     3.4506   3.5249   3.5788   3.7780   3.8246   3.9590   4.1968   4.2754
     9.7043  10.3316  10.6478  11.0381  11.0986  11.9259  11.9619  12.0839
    12.1570  12.4162

     occupation numbers 
     1.0000   1.0000   1.0000   1.0000   1.0000   1.0000   1.0000   1.0000
     1.0000   1.0000   1.0000   1.0000   1.0000   1.0000   1.0000   1.0000
     1.0000   1.0000   1.0000   1.0000   1.0000   1.0000   1.0000   1.0000
     1.0000   1.0000   1.0000   1.0000   1.0000   1.0000   1.0000   1.0000
     1.0000   1.0000   1.0000   1.0000   1.0000   1.0000   1.0000   1.0000
     1.0000   1.0000   1.0000   1.0000   1.0000   1.0000   1.0000   1.0000
     1.0000   1.0000   1.0000   1.0000   1.0000   1.0000   1.0000   1.0000
     1.0000   1.0000   1.0000   1.0000   1.0000   1.0000   1.0000   1.0000
     1.0000   1.0000   1.0000   1.0000   1.0000   1.0000   1.0000   1.0000
     1.0000   1.0000   1.0000   1.0000   1.0000   1.0000   1.0000   1.0000
     1.0000   1.0000   1.0000   1.0000   1.0000   1.0000   1.0000   1.0000
     1.0000   1.0000   1.0000   1.0000   1.0000   1.0000   1.0000   1.0000
     1.0000   1.0000   1.0000   1.0000   1.0000   1.0000   1.0000   1.0000
     0.0000   0.0000   0.0000   0.0000   0.0000   0.0000   0.0000   0.0000
     0.0000   0.0000

          k = 0.0000 0.4781 0.0000 ( 38338 PWs)   bands (ev):

   -85.6830 -85.6815 -85.6688 -85.6684 -51.8836 -51.8832 -51.7528 -51.7512
   -51.6832 -51.6820 -51.6051 -51.6049 -51.6036 -51.6023 -51.5040 -51.5037
   -45.8762 -17.9927 -17.8803 -17.8137 -16.3861 -16.2448 -16.1988 -16.0494
   -14.2507 -14.1108 -14.0576 -14.0362 -13.9674 -13.8736 -13.7865 -13.7326
   -13.7101 -13.6870 -13.6181 -13.5719  -4.6076  -4.2926  -4.0284  -3.9028
    -2.4893  -2.3797  -2.1172  -2.0264  -1.8587  -1.7434  -1.6245  -1.5035
    -1.4685  -1.4059  -1.3120  -1.1701  -0.6898  -0.5945  -0.3726  -0.2858
    -0.0972  -0.0296   0.0101   0.1407   0.2332   0.3692   0.5602   0.6299
     0.7466   0.8125   0.8586   0.9254   1.1285   1.1791   1.2156   1.3334
[...]
     atom    6 type  4   force =    -0.00905313    0.05443754    0.03647552
     atom    7 type  4   force =    -0.03543788    0.01737679   -0.07109833
     atom    8 type  4   force =     0.00905313   -0.05443754   -0.03647552
     atom    9 type  4   force =     0.03543788   -0.01737679    0.07109833
     atom   10 type  3   force =    -0.52404452   -0.29143170   -1.06274572
     atom   11 type  3   force =    -0.05424077    0.23850065   -1.49136113
     atom   12 type  3   force =     0.52404452    0.29143170    1.06274572
     atom   13 type  3   force =     0.05424077   -0.23850065    1.49136113
     atom   14 type  3   force =     1.40869220   -0.23571812   -0.65480821
     atom   15 type  3   force =    -1.36150060    0.27948213   -0.17448223
     atom   16 type  3   force =    -1.40869220    0.23571812    0.65480821
     atom   17 type  3   force =     1.36150060   -0.27948213    0.17448223
     atom   18 type  3   force =    -0.04305717   -1.39273309    0.82133347
     atom   19 type  3   force =     0.63487515    0.68366306    0.91836130
     atom   20 type  3   force =     0.03363491   -1.65516589   -0.98052722
     atom   21 type  3   force =    -0.08115847    1.01814344   -0.57221434
     atom   22 type  3   force =     0.04305717    1.39273309   -0.82133347
     atom   23 type  3   force =    -0.63487515   -0.68366306   -0.91836130
     atom   24 type  3   force =    -0.03363491    1.65516589    0.98052722
     atom   25 type  3   force =     0.08115847   -1.01814344    0.57221434
     The ionic contribution  to forces
     atom    1 type  2   force =     0.00054835    0.00043668    0.00018345
     atom    2 type  1   force =     8.71739461    5.24436777   -1.95975084
     atom    3 type  1   force =     4.53361834   -9.46599381   -2.62387278
     atom    4 type  1   force =    -8.71779186   -5.24431390    1.95960540
     atom    5 type  1   force =    -4.53402099    9.46566606    2.62394516
     atom    6 type  4   force =    -1.56292956    2.09070471   -2.06420312
     atom    7 type  4   force =     3.23930404   -0.93049514    1.14630204
     atom    8 type  4   force =     1.56299356   -2.09068811    2.06404067
     atom    9 type  4   force =    -3.23941630    0.93048216   -1.14619166
     atom   10 type  3   force =    -0.34502195    6.52219366    0.08238356
     atom   11 type  3   force =     7.11638274   -3.91659365    2.22942404
     atom   12 type  3   force =     0.34531113   -6.52197699   -0.08201847
     atom   13 type  3   force =    -7.11642304    3.91655151   -2.22959917
     atom   14 type  3   force =     0.32572074    1.43658778    7.36065101
     atom   15 type  3   force =     0.32919073   -3.03933751    4.87364548
     atom   16 type  3   force =    -0.32590345   -1.43658424   -7.36061783
     atom   17 type  3   force =    -0.32876110    3.03901197   -4.87400075
     atom   18 type  3   force =    -5.74741831    8.35860771    0.53489964
     atom   19 type  3   force =     2.36286665   -1.27372902   -3.32964930
     atom   20 type  3   force =     4.16421861    6.22178335    8.60385721
     atom   21 type  3   force =    -8.83482608   -0.75925174   -0.34523114
     atom   22 type  3   force =     5.74749188   -8.35862115   -0.53485970
     atom   23 type  3   force =    -2.36308225    1.27368819    3.32964375
     atom   24 type  3   force =    -4.16412144   -6.22178552   -8.60384019
     atom   25 type  3   force =     8.83467494    0.75928922    0.34525354
     The local contribution  to forces
     atom    1 type  2   force =     0.00000000   -0.00000000    0.00000000
     atom    2 type  1   force =    -8.80922428   -5.14540383    2.15474031
     atom    3 type  1   force =    -4.49343004    9.62065276    2.49180147
     atom    4 type  1   force =     8.77094951    5.13444869   -2.15204175
     atom    5 type  1   force =     4.45512195   -9.63307796   -2.49122862
     atom    6 type  4   force =     1.57405156   -2.14456116    2.02979938
     atom    7 type  4   force =    -3.20478628    0.91348173   -1.07612211
     atom    8 type  4   force =    -1.57405881    2.14427023   -2.03000890
     atom    9 type  4   force =     3.20497368   -0.91370988    1.07638150
     atom   10 type  3   force =     0.85005199   -6.24455148    0.94833512
     atom   11 type  3   force =    -7.06601528    3.68268840   -0.78240245
     atom   12 type  3   force =    -0.85806286    6.24199674   -0.94606977
     atom   13 type  3   force =     7.05753655   -3.68590461    0.78099406
     atom   14 type  3   force =    -1.69259543   -1.20858076   -6.72397707
     atom   15 type  3   force =     0.98516945    2.76539151   -4.70112365
     atom   16 type  3   force =     1.68575534    1.20583721    6.72478563
     atom   17 type  3   force =    -0.99147076   -2.76786418    4.70104449
     atom   18 type  3   force =     5.78340739   -7.00918499   -1.33486906
     atom   19 type  3   force =    -2.98401354    0.61140426    2.43777947
     atom   20 type  3   force =    -4.20177825   -4.61670941   -7.65256945
     atom   21 type  3   force =     8.91149353   -0.22943693    0.90561298
     atom   22 type  3   force =    -5.79141580    7.00659544    1.33352426
     atom   23 type  3   force =     2.97487781   -0.61318455   -2.43739649
     atom   24 type  3   force =     4.19307499    4.61436097    7.65341677
     atom   25 type  3   force =    -8.92037213    0.22699651   -0.90460006
     The core correction contribution to forces
     atom    1 type  2   force =     0.00000000    0.00000000    0.00000000
     atom    2 type  1   force =    -0.00153072    0.00089506    0.00082382
     atom    3 type  1   force =     0.00194371   -0.00015638    0.00040890
     atom    4 type  1   force =     0.00279175   -0.00049427   -0.00086553
     atom    5 type  1   force =    -0.00064711    0.00053150   -0.00040664
     atom    6 type  4   force =     0.00125476   -0.00315477   -0.00182706
     atom    7 type  4   force =     0.00243589   -0.00106985    0.00453275
     atom    8 type  4   force =    -0.00122839    0.00316192    0.00182923
     atom    9 type  4   force =    -0.00240645    0.00107521   -0.00453606
     atom   10 type  3   force =     0.00445387    0.00267701    0.00962403
     atom   11 type  3   force =     0.00124430   -0.00249949    0.01352314
     atom   12 type  3   force =    -0.00446015   -0.00267850   -0.00962811
     atom   13 type  3   force =    -0.00125046    0.00249771   -0.01352051
     atom   14 type  3   force =    -0.01256255    0.00223072    0.00661331
     atom   15 type  3   force =     0.01194993   -0.00272525    0.00209319
     atom   16 type  3   force =     0.01254808   -0.00223122   -0.00661360
     atom   17 type  3   force =    -0.01196304    0.00272521   -0.00209133
     atom   18 type  3   force =    -0.00016167    0.01315243   -0.00732277
     atom   19 type  3   force =    -0.00578526   -0.00592839   -0.00861674
     atom   20 type  3   force =    -0.00011072    0.01503431    0.00949232
     atom   21 type  3   force =     0.00058868   -0.00921338    0.00540495
     atom   22 type  3   force =     0.00015292   -0.01315639    0.00732736
     atom   23 type  3   force =     0.00577762    0.00592298    0.00861158
     atom   24 type  3   force =     0.00010498   -0.01503468   -0.00949411
     atom   25 type  3   force =    -0.00059415    0.00921245   -0.00540746
     The Hubbard contrib.    to forces
     atom    1 type  2   force =     0.00000000    0.00000000    0.00000000
     atom    2 type  1   force =     0.00000000    0.00000000    0.00000000
     atom    3 type  1   force =     0.00000000    0.00000000    0.00000000
     atom    4 type  1   force =     0.00000000    0.00000000    0.00000000
     atom    5 type  1   force =     0.00000000    0.00000000    0.00000000
     atom    6 type  4   force =     0.00000000    0.00000000    0.00000000
     atom    7 type  4   force =     0.00000000    0.00000000    0.00000000
     atom    8 type  4   force =     0.00000000    0.00000000    0.00000000
     atom    9 type  4   force =     0.00000000    0.00000000    0.00000000
     atom   10 type  3   force =     0.00000000    0.00000000    0.00000000
     atom   11 type  3   force =     0.00000000    0.00000000    0.00000000
     atom   12 type  3   force =     0.00000000    0.00000000    0.00000000
     atom   13 type  3   force =     0.00000000    0.00000000    0.00000000
     atom   14 type  3   force =     0.00000000    0.00000000    0.00000000
     atom   15 type  3   force =     0.00000000    0.00000000    0.00000000
     atom   16 type  3   force =     0.00000000    0.00000000    0.00000000
     atom   17 type  3   force =     0.00000000    0.00000000    0.00000000
     atom   18 type  3   force =     0.00000000    0.00000000    0.00000000
     atom   19 type  3   force =     0.00000000    0.00000000    0.00000000
     atom   20 type  3   force =     0.00000000    0.00000000    0.00000000
     atom   21 type  3   force =     0.00000000    0.00000000    0.00000000
     atom   22 type  3   force =     0.00000000    0.00000000    0.00000000
     atom   23 type  3   force =     0.00000000    0.00000000    0.00000000
     atom   24 type  3   force =     0.00000000    0.00000000    0.00000000
     atom   25 type  3   force =     0.00000000    0.00000000    0.00000000
     The SCF correction term to forces
     atom    1 type  2   force =     0.00000000    0.00000000    0.00000000
     atom    2 type  1   force =    -0.00000430   -0.00000071    0.00000086
     atom    3 type  1   force =    -0.00000437   -0.00000018   -0.00000213
     atom    4 type  1   force =     0.00000427    0.00000070   -0.00000085
     atom    5 type  1   force =     0.00000431    0.00000016    0.00000213
     atom    6 type  4   force =    -0.00000186   -0.00000093    0.00000110
     atom    7 type  4   force =    -0.00000189    0.00000067   -0.00000004
     atom    8 type  4   force =     0.00000186    0.00000093   -0.00000110
     atom    9 type  4   force =     0.00000189   -0.00000067    0.00000004
     atom   10 type  3   force =    -0.00000429   -0.00000389   -0.00000236
     atom   11 type  3   force =    -0.00000308    0.00000132    0.00000185
     atom   12 type  3   force =     0.00000428    0.00000389    0.00000236
     atom   13 type  3   force =     0.00000308   -0.00000132   -0.00000186
     atom   14 type  3   force =     0.00000331   -0.00000026    0.00000120
     atom   15 type  3   force =     0.00000090    0.00000081   -0.00000170
     atom   16 type  3   force =    -0.00000331    0.00000026   -0.00000120
     atom   17 type  3   force =    -0.00000090   -0.00000081    0.00000170
     atom   18 type  3   force =    -0.00000608    0.00000077    0.00000243
     atom   19 type  3   force =    -0.00000232    0.00000638   -0.00000160
     atom   20 type  3   force =     0.00000104    0.00000111   -0.00000218
     atom   21 type  3   force =     0.00000216    0.00000480    0.00000309
     atom   22 type  3   force =     0.00000608   -0.00000077   -0.00000243
     atom   23 type  3   force =     0.00000231   -0.00000638    0.00000160
     atom   24 type  3   force =    -0.00000105   -0.00000111    0.00000218
     atom   25 type  3   force =    -0.00000217   -0.00000480   -0.00000309

     Total force =     0.126698     Total SCF correction =     0.000023


     Computing stress (Cartesian axis) and pressure


     negative rho (up, down):  0.000E+00 8.791E-04
          total   stress  (Ry/bohr**3)                   (kbar)     P=      -53.68
  -0.00069978   0.00012423  -0.00005466         -102.94       18.27       -8.04
   0.00012423  -0.00012586   0.00002832           18.27      -18.51        4.17
  -0.00005466   0.00002832  -0.00026906           -8.04        4.17      -39.58

     kinetic stress (kbar)  25042.11     92.52    -48.68
                               92.52  25183.57      4.45
                              -48.68      4.45  25207.45

     local   stress (kbar)  -8317.47   3562.35  -7695.16
                             3562.35 -14065.43  -1422.46
                            -7695.16  -1422.46  -5722.88

     nonloc. stress (kbar)  -6379.48      3.86     -8.09
                                3.86  -6355.83     -8.88
                               -8.09     -8.88  -6367.80

     hartree stress (kbar)  13919.13  -1329.58   3264.44
                            -1329.58  16824.56    625.68
                             3264.44    625.68  13272.49

     exc-cor stress (kbar)  -2655.63     -3.13      3.25
                               -3.13  -2658.68     -0.01
                                3.25     -0.01  -2659.32

     corecor stress (kbar)  -2963.07      0.20     -0.31
                                0.20  -2963.77      0.85
                               -0.31      0.85  -2963.12

     ewald   stress (kbar) -18748.53  -2307.95   4476.50
                            -2307.95 -15982.92    804.54
                             4476.50    804.54 -20806.39

     hubbard stress (kbar)      0.00      0.00      0.00
                                0.00      0.00      0.00
                                0.00      0.00      0.00

     DFT-D   stress (kbar)      0.00      0.00      0.00
                                0.00      0.00      0.00
                                0.00      0.00      0.00

     XDM     stress (kbar)      0.00      0.00      0.00
                                0.00      0.00      0.00
                                0.00      0.00      0.00

     dft-nl  stress (kbar)      0.00      0.00      0.00
                                0.00      0.00      0.00
                                0.00      0.00      0.00

     TS-vdW  stress (kbar)      0.00      0.00      0.00
                                0.00      0.00      0.00
                                0.00      0.00      0.00



     init_run     :   1158.72s CPU   1347.78s WALL (       1 calls)
     electrons    :  79931.92s CPU  91751.03s WALL (       1 calls)
     forces       :    150.91s CPU    170.28s WALL (       1 calls)
     stress       :    717.21s CPU    821.58s WALL (       1 calls)

     Called by init_run:
     wfcinit      :   1141.27s CPU   1327.78s WALL (       1 calls)
     wfcinit:atom :      0.63s CPU      0.75s WALL (     316 calls)
     wfcinit:wfcr :   1135.95s CPU   1321.26s WALL (     316 calls)
     potinit      :      8.20s CPU      8.96s WALL (       1 calls)
     hinit0       :      5.31s CPU      5.97s WALL (       1 calls)

     Called by electrons:
     c_bands      :  67298.10s CPU  77197.96s WALL (      28 calls)
     sum_band     :  12405.46s CPU  14290.80s WALL (      28 calls)
     v_of_rho     :     77.80s CPU     89.24s WALL (      29 calls)
     v_h          :      6.94s CPU      8.08s WALL (      29 calls)
     v_xc         :     75.61s CPU     86.51s WALL (      31 calls)
     newd         :     64.29s CPU     73.95s WALL (      29 calls)
     PAW_pot      :     17.18s CPU     19.39s WALL (      29 calls)
     mix_rho      :     57.64s CPU     65.74s WALL (      28 calls)

     Called by c_bands:
     init_us_2    :     56.53s CPU     61.64s WALL (   18644 calls)
     cegterg      :  66609.51s CPU  76364.36s WALL (    8848 calls)

     Called by sum_band:
     sum_band:wei :      0.50s CPU      0.62s WALL (      28 calls)
     sum_band:loo :  12293.23s CPU  14157.61s WALL (      28 calls)
     sum_band:buf :     13.67s CPU     14.14s WALL (    8848 calls)
     sum_band:ini :     22.10s CPU     23.18s WALL (    8848 calls)
     sum_band:cal :    871.69s CPU   1014.12s WALL (    8848 calls)
     sum_band:bec :      2.08s CPU      2.09s WALL (    8848 calls)
     addusdens    :     67.74s CPU     82.16s WALL (      28 calls)
     addusd:skk   :      0.66s CPU      0.78s WALL (      84 calls)
     addusd:dgemm :      5.18s CPU      8.32s WALL (     168 calls)
     addusd:qvan2 :     61.09s CPU     71.97s WALL (     168 calls)

     Called by *egterg:
     cdiaghg      :   1204.12s CPU   1409.08s WALL (   36066 calls)
     cegterg:over :   4090.23s CPU   4676.79s WALL (   27218 calls)
     cegterg:upda :    174.36s CPU    194.25s WALL (   27218 calls)
     cegterg:last :    372.75s CPU    423.59s WALL (   16678 calls)
     h_psi        :  58425.91s CPU  67002.94s WALL (   36382 calls)
     s_psi        :    341.24s CPU    399.77s WALL (   36382 calls)
     g_psi        :     19.08s CPU     23.34s WALL (   27218 calls)

     Called by h_psi:
     h_psi:calbec :   3022.71s CPU   3482.62s WALL (   36382 calls)
     vloc_psi     :  55003.93s CPU  63060.76s WALL (   36382 calls)
     add_vuspsi   :    359.20s CPU    416.34s WALL (   36382 calls)

     General routines
     calbec       :   4171.46s CPU   4809.40s WALL (   46810 calls)
     fft          :    117.98s CPU    134.60s WALL (     763 calls)
     ffts         :      1.78s CPU      1.99s WALL (     114 calls)
     fftw         :  65733.58s CPU  75500.28s WALL ( 5874796 calls)
     interpolate  :     10.84s CPU     12.35s WALL (      58 calls)

     Parallel routines
     fft_scatt_xy :    312.58s CPU    315.85s WALL ( 5875673 calls)
     fft_scatt_yz :  64593.73s CPU  74362.31s WALL ( 5875673 calls)

     PAW routines
     PAW_pot      :     17.18s CPU     19.39s WALL (      29 calls)
     PAW_symme    :      4.97s CPU      5.79s WALL (      57 calls)

     PWSCF        :     22h46m CPU   1d 2h 8m WALL


   This run was terminated on:   4:14:13   8Feb2023            

=------------------------------------------------------------------------------=
   JOB DONE.
=------------------------------------------------------------------------------=
Note: The following floating-point exceptions are signalling: IEEE_INVALID_FLAG IEEE_DENORMAL
Note: The following floating-point exceptions are signalling: IEEE_DENORMAL
Note: The following floating-point exceptions are signalling: IEEE_DENORMAL
Note: The following floating-point exceptions are signalling: IEEE_DENORMAL
Note: The following floating-point exceptions are signalling: IEEE_DENORMAL
Note: The following floating-point exceptions are signalling: IEEE_DENORMAL
Note: The following floating-point exceptions are signalling: IEEE_DENORMAL
Note: The following floating-point exceptions are signalling: IEEE_DENORMAL
Note: The following floating-point exceptions are signalling: IEEE_DENORMAL
Note: The following floating-point exceptions are signalling: IEEE_DENORMAL
Note: The following floating-point exceptions are signalling: IEEE_DENORMAL
Note: The following floating-point exceptions are signalling: IEEE_DENORMAL
Note: The following floating-point exceptions are signalling: IEEE_INVALID_FLAG IEEE_DENORMAL
Note: The following floating-point exceptions are signalling: IEEE_DENORMAL
Note: The following floating-point exceptions are signalling: IEEE_DENORMAL
Note: The following floating-point exceptions are signalling: IEEE_DENORMAL
Note: The following floating-point exceptions are signalling: IEEE_DENORMAL
Note: The following floating-point exceptions are signalling: IEEE_DENORMAL
Note: The following floating-point exceptions are signalling: IEEE_DENORMAL
Note: The following floating-point exceptions are signalling: IEEE_DENORMAL
Note: The following floating-point exceptions are signalling: IEEE_DENORMAL
Note: The following floating-point exceptions are signalling: IEEE_DENORMAL
Note: The following floating-point exceptions are signalling: IEEE_DENORMAL
Note: The following floating-point exceptions are signalling: IEEE_DENORMAL
Note: The following floating-point exceptions are signalling: IEEE_DENORMAL
Note: The following floating-point exceptions are signalling: IEEE_DENORMAL
Note: The following floating-point exceptions are signalling: IEEE_DENORMAL
Note: The following floating-point exceptions are signalling: IEEE_DENORMAL
Note: The following floating-point exceptions are signalling: IEEE_DENORMAL
Note: The following floating-point exceptions are signalling: IEEE_DENORMAL
Note: The following floating-point exceptions are signalling: IEEE_UNDERFLOW_FLAG IEEE_DENORMAL
