
     Program PWSCF v.6.7MaX starts on 29Jan2023 at 22:24: 5 

     This program is part of the open-source Quantum ESPRESSO suite
     for quantum simulation of materials; please cite
         "P. Giannozzi et al., J. Phys.:Condens. Matter 21 395502 (2009);
         "P. Giannozzi et al., J. Phys.:Condens. Matter 29 465901 (2017);
          URL http://www.quantum-espresso.org", 
     in publications or presentations arising from this work. More details at
     http://www.quantum-espresso.org/quote

     Parallel version (MPI), running on    32 processors

     MPI processes distributed on     2 nodes
     R & G space division:  proc/nbgrp/npool/nimage =      32
     Reading input from scale_3d-04.in

     Current dimensions of program PWSCF are:
     Max number of different atomic species (ntypx) = 10
     Max number of k-points (npk) =  40000
     Max angular momentum in pseudopotentials (lmaxx) =  3
     Message from routine read_pp_mesh:
     mesh size missing, using the one in header
     file Fe.pbe-spn-kjpaw_psl.0.2.1.UPF: wavefunction(s)  3D renormalized
     file O.pbe-n-kjpaw_psl.0.1.UPF: wavefunction(s)  2P renormalized

     Subspace diagonalization in iterative solution of the eigenvalue problem:
     a serial algorithm will be used

     Message from routine setup:
     using ibrav=0 with symmetry is DISCOURAGED, use correct ibrav instead

     Parallelization info
     --------------------
     sticks:   dense  smooth     PW     G-vecs:    dense   smooth      PW
     Min         662     245     66                44648    10067    1406
     Max         663     246     67                44651    10072    1408
     Sum       21211    7849   2119              1428783   322201   45025



     bravais-lattice index     =            0
     lattice parameter (alat)  =      20.3206  a.u.
     unit-cell volume          =    2383.6748 (a.u.)^3
     number of atoms/cell      =           25
     number of atomic types    =            4
     number of electrons       =       189.00
     number of Kohn-Sham states=          114
     kinetic-energy cutoff     =     100.0000  Ry
     charge density cutoff     =    1080.0000  Ry
     scf convergence threshold =      2.0E-10
     mixing beta               =       0.4000
     number of iterations used =            8  plain     mixing
     Exchange-correlation= PBE
                           (   1   4   3   4   0   0   0)

     celldm(1)=  20.320559  celldm(2)=   0.000000  celldm(3)=   0.000000
     celldm(4)=   0.000000  celldm(5)=   0.000000  celldm(6)=   0.000000

     crystal axes: (cart. coord. in units of alat)
               a(1) = (   1.000000   0.000000   0.000000 )  
               a(2) = (   0.000000   0.597590   0.000000 )  
               a(3) = (   0.000000   0.000000   0.475375 )  

     reciprocal axes: (cart. coord. in units 2 pi/alat)
               b(1) = (  1.000000  0.000000  0.000000 )  
               b(2) = (  0.000000  1.673388  0.000000 )  
               b(3) = (  0.000000  0.000000  2.103600 )  


     PseudoPot. # 1 for Fe read from file:
     /opt/QEpot/SSSP_precision_pseudos/Fe.pbe-spn-kjpaw_psl.0.2.1.UPF
     MD5 check sum: e86618425769142926afa95317d90200
     Pseudo is Projector augmented-wave + core cor, Zval = 16.0
     Generated using "atomic" code by A. Dal Corso  v.5.0.99 svn rev. 10869
     Shape of augmentation charge: PSQ
     Using radial grid of 1191 points,  6 beta functions with: 
                l(1) =   0
                l(2) =   0
                l(3) =   1
                l(4) =   1
                l(5) =   2
                l(6) =   2
     Q(r) pseudized with 0 coefficients 


     PseudoPot. # 2 for Na read from file:
     /opt/QEpot/SSSP_precision_pseudos/Na_ONCV_PBE-1.0.oncvpsp.upf
     MD5 check sum: 24a298df0a6742ae313db96548fdb2a4
     Pseudo is Norm-conserving, Zval =  9.0
     Generated using ONCVPSP code by D. R. Hamann
     Using radial grid of 1992 points,  4 beta functions with: 
                l(1) =   0
                l(2) =   0
                l(3) =   1
                l(4) =   1

     PseudoPot. # 3 for O  read from file:
     /opt/QEpot/SSSP_precision_pseudos/O.pbe-n-kjpaw_psl.0.1.UPF
     MD5 check sum: 0234752ac141de4415c5fc33072bef88
     Pseudo is Projector augmented-wave + core cor, Zval =  6.0
     Generated using "atomic" code by A. Dal Corso  v.5.0.99 svn rev. 10869
     Shape of augmentation charge: BESSEL
     Using radial grid of 1095 points,  4 beta functions with: 
                l(1) =   0
                l(2) =   0
                l(3) =   1
                l(4) =   1
     Q(r) pseudized with 0 coefficients 


     PseudoPot. # 4 for P  read from file:
     /opt/QEpot/SSSP_precision_pseudos/P.pbe-n-rrkjus_psl.1.0.0.UPF
     MD5 check sum: 8b930f418f0a4573dca56cd030ffe088
     Pseudo is Ultrasoft + core correction, Zval =  5.0
     Generated using "atomic" code by A. Dal Corso  v.5.1
     Using radial grid of 1147 points,  6 beta functions with: 
                l(1) =   0
                l(2) =   0
                l(3) =   1
                l(4) =   1
                l(5) =   2
                l(6) =   2
     Q(r) pseudized with 0 coefficients 


     atomic species   valence    mass     pseudopotential
        Fe            16.00    55.84500     Fe( 1.00)
        Na             9.00    22.98977     Na( 1.00)
        O              6.00    15.99940     O ( 1.00)
        P              5.00    30.97376     P ( 1.00)

     Starting magnetic structure 
     atomic species   magnetization
        Fe           0.312
        Na           0.000
        O            0.000
        P            0.000

      2 Sym. Ops., with inversion, found


                                    s                        frac. trans.

      isym =  1     identity                                     

 cryst.   s( 1) = (     1          0          0      )
                  (     0          1          0      )
                  (     0          0          1      )

 cart.    s( 1) = (  1.0000000  0.0000000  0.0000000 )
                  (  0.0000000  1.0000000  0.0000000 )
                  (  0.0000000  0.0000000  1.0000000 )


      isym =  2     inversion                                    

 cryst.   s( 2) = (    -1          0          0      )
                  (     0         -1          0      )
                  (     0          0         -1      )

 cart.    s( 2) = ( -1.0000000  0.0000000  0.0000000 )
                  (  0.0000000 -1.0000000  0.0000000 )
                  (  0.0000000  0.0000000 -1.0000000 )


   Cartesian axes

     site n.     atom                  positions (alat units)
         1           Na  tau(   1) = (   0.9999980   0.0000000   0.2376892  )
         2           Fe  tau(   2) = (   0.2996860   0.4621103   0.4052210  )
         3           Fe  tau(   3) = (   0.2274400   0.2026356   0.2422742  )
         4           Fe  tau(   4) = (   0.7003200   0.1354826   0.0701569  )
         5           Fe  tau(   5) = (   0.7725660   0.3949573   0.2331042  )
         6           P   tau(   6) = (   0.0937970   0.3904700   0.1270004  )
         7           P   tau(   7) = (   0.3977930   0.1502502   0.4496363  )
         8           P   tau(   8) = (   0.9062090   0.2071229   0.3483799  )
         9           P   tau(   9) = (   0.6022130   0.4473427   0.0257411  )
        10           O   tau(  10) = (   0.1764850   0.4101953   0.2541177  )
        11           O   tau(  11) = (   0.3589780   0.1499030   0.1165801  )
        12           O   tau(  12) = (   0.8235200   0.1873976   0.2212592  )
        13           O   tau(  13) = (   0.6410280   0.4476899   0.3587987  )
        14           O   tau(  14) = (   0.4562740   0.4640531   0.0414951  )
        15           O   tau(  15) = (   0.0496550   0.1754697   0.3266747  )
        16           O   tau(  16) = (   0.5437320   0.1335398   0.4338833  )
        17           O   tau(  17) = (   0.9503500   0.4221232   0.1487032  )
        18           O   tau(  18) = (   0.1479210   0.4915428   0.0308162  )
        19           O   tau(  19) = (   0.3206550   0.0491548   0.3653199  )
        20           O   tau(  20) = (   0.8792370   0.3474352   0.3862863  )
        21           O   tau(  21) = (   0.6516400   0.3219271   0.0989903  )
        22           O   tau(  22) = (   0.8520850   0.1060501   0.4445621  )
        23           O   tau(  23) = (   0.6793510   0.5484382   0.1100585  )
        24           O   tau(  24) = (   0.1207690   0.2501571   0.0890915  )
        25           O   tau(  25) = (   0.3483660   0.2756658   0.3763881  )

   Crystallographic axes

     site n.     atom                  positions (cryst. coord.)
         1           Na  tau(   1) = (  0.9999980  0.0000000  0.5000030  )
         2           Fe  tau(   2) = (  0.2996860  0.7732900  0.8524230  )
         3           Fe  tau(   3) = (  0.2274400  0.3390880  0.5096480  )
         4           Fe  tau(   4) = (  0.7003200  0.2267150  0.1475820  )
         5           Fe  tau(   5) = (  0.7725660  0.6609170  0.4903580  )
         6           P   tau(   6) = (  0.0937970  0.6534080  0.2671580  )
         7           P   tau(   7) = (  0.3977930  0.2514270  0.9458550  )
         8           P   tau(   8) = (  0.9062090  0.3465970  0.7328520  )
         9           P   tau(   9) = (  0.6022130  0.7485780  0.0541490  )
        10           O   tau(  10) = (  0.1764850  0.6864160  0.5345620  )
        11           O   tau(  11) = (  0.3589780  0.2508460  0.2452380  )
        12           O   tau(  12) = (  0.8235200  0.3135890  0.4654410  )
        13           O   tau(  13) = (  0.6410280  0.7491590  0.7547690  )
        14           O   tau(  14) = (  0.4562740  0.7765410  0.0872890  )
        15           O   tau(  15) = (  0.0496550  0.2936290  0.6871930  )
        16           O   tau(  16) = (  0.5437320  0.2234640  0.9127170  )
        17           O   tau(  17) = (  0.9503500  0.7063760  0.3128120  )
        18           O   tau(  18) = (  0.1479210  0.8225420  0.0648250  )
        19           O   tau(  19) = (  0.3206550  0.0822550  0.7684870  )
        20           O   tau(  20) = (  0.8792370  0.5813940  0.8125920  )
        21           O   tau(  21) = (  0.6516400  0.5387090  0.2082360  )
        22           O   tau(  22) = (  0.8520850  0.1774630  0.9351810  )
        23           O   tau(  23) = (  0.6793510  0.9177500  0.2315190  )
        24           O   tau(  24) = (  0.1207690  0.4186100  0.1874130  )
        25           O   tau(  25) = (  0.3483660  0.4612960  0.7917700  )

     number of k points=   158  Marzari-Vanderbilt smearing, width (Ry)=  0.0073
                       cart. coord. in units 2pi/alat
        k(    1) = (   0.0000000   0.0000000   0.0000000), wk =   0.0031746
        k(    2) = (   0.0000000   0.0000000   0.2337334), wk =   0.0063492
        k(    3) = (   0.0000000   0.0000000   0.4674667), wk =   0.0063492
        k(    4) = (   0.0000000   0.0000000   0.7012001), wk =   0.0063492
        k(    5) = (   0.0000000   0.0000000   0.9349334), wk =   0.0063492
        k(    6) = (   0.0000000   0.2390555   0.0000000), wk =   0.0063492
        k(    7) = (   0.0000000   0.2390555   0.2337334), wk =   0.0063492
        k(    8) = (   0.0000000   0.2390555   0.4674667), wk =   0.0063492
        k(    9) = (   0.0000000   0.2390555   0.7012001), wk =   0.0063492
        k(   10) = (   0.0000000   0.2390555   0.9349334), wk =   0.0063492
        k(   11) = (   0.0000000   0.4781110   0.0000000), wk =   0.0063492
        k(   12) = (   0.0000000   0.4781110   0.2337334), wk =   0.0063492
        k(   13) = (   0.0000000   0.4781110   0.4674667), wk =   0.0063492
        k(   14) = (   0.0000000   0.4781110   0.7012001), wk =   0.0063492
        k(   15) = (   0.0000000   0.4781110   0.9349334), wk =   0.0063492
        k(   16) = (   0.0000000   0.7171664   0.0000000), wk =   0.0063492
        k(   17) = (   0.0000000   0.7171664   0.2337334), wk =   0.0063492
        k(   18) = (   0.0000000   0.7171664   0.4674667), wk =   0.0063492
        k(   19) = (   0.0000000   0.7171664   0.7012001), wk =   0.0063492
        k(   20) = (   0.0000000   0.7171664   0.9349334), wk =   0.0063492
        k(   21) = (   0.2000000   0.0000000   0.0000000), wk =   0.0063492
        k(   22) = (   0.2000000   0.0000000   0.2337334), wk =   0.0063492
        k(   23) = (   0.2000000   0.0000000   0.4674667), wk =   0.0063492
        k(   24) = (   0.2000000   0.0000000   0.7012001), wk =   0.0063492
        k(   25) = (   0.2000000   0.0000000   0.9349334), wk =   0.0063492
        k(   26) = (   0.2000000   0.2390555   0.0000000), wk =   0.0063492
        k(   27) = (   0.2000000   0.2390555   0.2337334), wk =   0.0063492
        k(   28) = (   0.2000000   0.2390555   0.4674667), wk =   0.0063492
        k(   29) = (   0.2000000   0.2390555   0.7012001), wk =   0.0063492
        k(   30) = (   0.2000000   0.2390555   0.9349334), wk =   0.0063492
        k(   31) = (   0.2000000   0.4781110   0.0000000), wk =   0.0063492
        k(   32) = (   0.2000000   0.4781110   0.2337334), wk =   0.0063492
        k(   33) = (   0.2000000   0.4781110   0.4674667), wk =   0.0063492
        k(   34) = (   0.2000000   0.4781110   0.7012001), wk =   0.0063492
        k(   35) = (   0.2000000   0.4781110   0.9349334), wk =   0.0063492
        k(   36) = (   0.2000000   0.7171664   0.0000000), wk =   0.0063492
        k(   37) = (   0.2000000   0.7171664   0.2337334), wk =   0.0063492
        k(   38) = (   0.2000000   0.7171664   0.4674667), wk =   0.0063492
        k(   39) = (   0.2000000   0.7171664   0.7012001), wk =   0.0063492
        k(   40) = (   0.2000000   0.7171664   0.9349334), wk =   0.0063492
        k(   41) = (   0.4000000   0.0000000   0.0000000), wk =   0.0063492
        k(   42) = (   0.4000000   0.0000000   0.2337334), wk =   0.0063492
        k(   43) = (   0.4000000   0.0000000   0.4674667), wk =   0.0063492
        k(   44) = (   0.4000000   0.0000000   0.7012001), wk =   0.0063492
        k(   45) = (   0.4000000   0.0000000   0.9349334), wk =   0.0063492
        k(   46) = (   0.4000000   0.2390555   0.0000000), wk =   0.0063492
        k(   47) = (   0.4000000   0.2390555   0.2337334), wk =   0.0063492
        k(   48) = (   0.4000000   0.2390555   0.4674667), wk =   0.0063492
        k(   49) = (   0.4000000   0.2390555   0.7012001), wk =   0.0063492
        k(   50) = (   0.4000000   0.2390555   0.9349334), wk =   0.0063492
        k(   51) = (   0.4000000   0.4781110   0.0000000), wk =   0.0063492
        k(   52) = (   0.4000000   0.4781110   0.2337334), wk =   0.0063492
        k(   53) = (   0.4000000   0.4781110   0.4674667), wk =   0.0063492
        k(   54) = (   0.4000000   0.4781110   0.7012001), wk =   0.0063492
        k(   55) = (   0.4000000   0.4781110   0.9349334), wk =   0.0063492
        k(   56) = (   0.4000000   0.7171664   0.0000000), wk =   0.0063492
        k(   57) = (   0.4000000   0.7171664   0.2337334), wk =   0.0063492
        k(   58) = (   0.4000000   0.7171664   0.4674667), wk =   0.0063492
        k(   59) = (   0.4000000   0.7171664   0.7012001), wk =   0.0063492
        k(   60) = (   0.4000000   0.7171664   0.9349334), wk =   0.0063492
        k(   61) = (   0.0000000   0.2390555  -0.2337334), wk =   0.0063492
        k(   62) = (   0.0000000   0.2390555  -0.4674667), wk =   0.0063492
        k(   63) = (   0.0000000   0.2390555  -0.7012001), wk =   0.0063492
        k(   64) = (   0.0000000   0.2390555  -0.9349334), wk =   0.0063492
        k(   65) = (   0.0000000   0.4781110  -0.2337334), wk =   0.0063492
        k(   66) = (   0.0000000   0.4781110  -0.4674667), wk =   0.0063492
        k(   67) = (   0.0000000   0.4781110  -0.7012001), wk =   0.0063492
        k(   68) = (   0.0000000   0.4781110  -0.9349334), wk =   0.0063492
        k(   69) = (   0.0000000   0.7171664  -0.2337334), wk =   0.0063492
        k(   70) = (   0.0000000   0.7171664  -0.4674667), wk =   0.0063492
        k(   71) = (   0.0000000   0.7171664  -0.7012001), wk =   0.0063492
        k(   72) = (   0.0000000   0.7171664  -0.9349334), wk =   0.0063492
        k(   73) = (   0.2000000   0.0000000  -0.2337334), wk =   0.0063492
        k(   74) = (   0.2000000   0.0000000  -0.4674667), wk =   0.0063492
        k(   75) = (   0.2000000   0.0000000  -0.7012001), wk =   0.0063492
        k(   76) = (   0.2000000   0.0000000  -0.9349334), wk =   0.0063492
        k(   77) = (  -0.2000000   0.2390555   0.0000000), wk =   0.0063492
        k(   78) = (  -0.2000000   0.2390555  -0.2337334), wk =   0.0063492
        k(   79) = (   0.2000000  -0.2390555  -0.2337334), wk =   0.0063492
        k(   80) = (  -0.2000000  -0.2390555   0.2337334), wk =   0.0063492
        k(   81) = (  -0.2000000   0.2390555  -0.4674667), wk =   0.0063492
        k(   82) = (   0.2000000  -0.2390555  -0.4674667), wk =   0.0063492
        k(   83) = (  -0.2000000  -0.2390555   0.4674667), wk =   0.0063492
        k(   84) = (  -0.2000000   0.2390555  -0.7012001), wk =   0.0063492
        k(   85) = (   0.2000000  -0.2390555  -0.7012001), wk =   0.0063492
        k(   86) = (  -0.2000000  -0.2390555   0.7012001), wk =   0.0063492
        k(   87) = (  -0.2000000   0.2390555  -0.9349334), wk =   0.0063492
        k(   88) = (   0.2000000  -0.2390555  -0.9349334), wk =   0.0063492
        k(   89) = (  -0.2000000  -0.2390555   0.9349334), wk =   0.0063492
        k(   90) = (  -0.2000000   0.4781110   0.0000000), wk =   0.0063492
        k(   91) = (  -0.2000000   0.4781110  -0.2337334), wk =   0.0063492
        k(   92) = (   0.2000000  -0.4781110  -0.2337334), wk =   0.0063492
        k(   93) = (  -0.2000000  -0.4781110   0.2337334), wk =   0.0063492
        k(   94) = (  -0.2000000   0.4781110  -0.4674667), wk =   0.0063492
        k(   95) = (   0.2000000  -0.4781110  -0.4674667), wk =   0.0063492
        k(   96) = (  -0.2000000  -0.4781110   0.4674667), wk =   0.0063492
        k(   97) = (  -0.2000000   0.4781110  -0.7012001), wk =   0.0063492
        k(   98) = (   0.2000000  -0.4781110  -0.7012001), wk =   0.0063492
        k(   99) = (  -0.2000000  -0.4781110   0.7012001), wk =   0.0063492
        k(  100) = (  -0.2000000   0.4781110  -0.9349334), wk =   0.0063492
        k(  101) = (   0.2000000  -0.4781110  -0.9349334), wk =   0.0063492
        k(  102) = (  -0.2000000  -0.4781110   0.9349334), wk =   0.0063492
        k(  103) = (  -0.2000000   0.7171664   0.0000000), wk =   0.0063492
        k(  104) = (  -0.2000000   0.7171664  -0.2337334), wk =   0.0063492
        k(  105) = (   0.2000000  -0.7171664  -0.2337334), wk =   0.0063492
        k(  106) = (  -0.2000000  -0.7171664   0.2337334), wk =   0.0063492
        k(  107) = (  -0.2000000   0.7171664  -0.4674667), wk =   0.0063492
        k(  108) = (   0.2000000  -0.7171664  -0.4674667), wk =   0.0063492
        k(  109) = (  -0.2000000  -0.7171664   0.4674667), wk =   0.0063492
        k(  110) = (  -0.2000000   0.7171664  -0.7012001), wk =   0.0063492
        k(  111) = (   0.2000000  -0.7171664  -0.7012001), wk =   0.0063492
        k(  112) = (  -0.2000000  -0.7171664   0.7012001), wk =   0.0063492
        k(  113) = (  -0.2000000   0.7171664  -0.9349334), wk =   0.0063492
        k(  114) = (   0.2000000  -0.7171664  -0.9349334), wk =   0.0063492
        k(  115) = (  -0.2000000  -0.7171664   0.9349334), wk =   0.0063492
        k(  116) = (   0.4000000   0.0000000  -0.2337334), wk =   0.0063492
        k(  117) = (   0.4000000   0.0000000  -0.4674667), wk =   0.0063492
        k(  118) = (   0.4000000   0.0000000  -0.7012001), wk =   0.0063492
        k(  119) = (   0.4000000   0.0000000  -0.9349334), wk =   0.0063492
        k(  120) = (  -0.4000000   0.2390555   0.0000000), wk =   0.0063492
        k(  121) = (  -0.4000000   0.2390555  -0.2337334), wk =   0.0063492
        k(  122) = (   0.4000000  -0.2390555  -0.2337334), wk =   0.0063492
        k(  123) = (  -0.4000000  -0.2390555   0.2337334), wk =   0.0063492
        k(  124) = (  -0.4000000   0.2390555  -0.4674667), wk =   0.0063492
        k(  125) = (   0.4000000  -0.2390555  -0.4674667), wk =   0.0063492
        k(  126) = (  -0.4000000  -0.2390555   0.4674667), wk =   0.0063492
        k(  127) = (  -0.4000000   0.2390555  -0.7012001), wk =   0.0063492
        k(  128) = (   0.4000000  -0.2390555  -0.7012001), wk =   0.0063492
        k(  129) = (  -0.4000000  -0.2390555   0.7012001), wk =   0.0063492
        k(  130) = (  -0.4000000   0.2390555  -0.9349334), wk =   0.0063492
        k(  131) = (   0.4000000  -0.2390555  -0.9349334), wk =   0.0063492
        k(  132) = (  -0.4000000  -0.2390555   0.9349334), wk =   0.0063492
        k(  133) = (  -0.4000000   0.4781110   0.0000000), wk =   0.0063492
        k(  134) = (  -0.4000000   0.4781110  -0.2337334), wk =   0.0063492
        k(  135) = (   0.4000000  -0.4781110  -0.2337334), wk =   0.0063492
        k(  136) = (  -0.4000000  -0.4781110   0.2337334), wk =   0.0063492
        k(  137) = (  -0.4000000   0.4781110  -0.4674667), wk =   0.0063492
        k(  138) = (   0.4000000  -0.4781110  -0.4674667), wk =   0.0063492
        k(  139) = (  -0.4000000  -0.4781110   0.4674667), wk =   0.0063492
        k(  140) = (  -0.4000000   0.4781110  -0.7012001), wk =   0.0063492
        k(  141) = (   0.4000000  -0.4781110  -0.7012001), wk =   0.0063492
        k(  142) = (  -0.4000000  -0.4781110   0.7012001), wk =   0.0063492
        k(  143) = (  -0.4000000   0.4781110  -0.9349334), wk =   0.0063492
        k(  144) = (   0.4000000  -0.4781110  -0.9349334), wk =   0.0063492
        k(  145) = (  -0.4000000  -0.4781110   0.9349334), wk =   0.0063492
        k(  146) = (  -0.4000000   0.7171664   0.0000000), wk =   0.0063492
        k(  147) = (  -0.4000000   0.7171664  -0.2337334), wk =   0.0063492
        k(  148) = (   0.4000000  -0.7171664  -0.2337334), wk =   0.0063492
        k(  149) = (  -0.4000000  -0.7171664   0.2337334), wk =   0.0063492
        k(  150) = (  -0.4000000   0.7171664  -0.4674667), wk =   0.0063492
        k(  151) = (   0.4000000  -0.7171664  -0.4674667), wk =   0.0063492
        k(  152) = (  -0.4000000  -0.7171664   0.4674667), wk =   0.0063492
        k(  153) = (  -0.4000000   0.7171664  -0.7012001), wk =   0.0063492
        k(  154) = (   0.4000000  -0.7171664  -0.7012001), wk =   0.0063492
        k(  155) = (  -0.4000000  -0.7171664   0.7012001), wk =   0.0063492
        k(  156) = (  -0.4000000   0.7171664  -0.9349334), wk =   0.0063492
        k(  157) = (   0.4000000  -0.7171664  -0.9349334), wk =   0.0063492
        k(  158) = (  -0.4000000  -0.7171664   0.9349334), wk =   0.0063492

                       cryst. coord.
        k(    1) = (   0.0000000   0.0000000   0.0000000), wk =   0.0031746
        k(    2) = (   0.0000000   0.0000000   0.1111111), wk =   0.0063492
        k(    3) = (   0.0000000   0.0000000   0.2222222), wk =   0.0063492
        k(    4) = (   0.0000000   0.0000000   0.3333333), wk =   0.0063492
        k(    5) = (   0.0000000   0.0000000   0.4444444), wk =   0.0063492
        k(    6) = (   0.0000000   0.1428571   0.0000000), wk =   0.0063492
        k(    7) = (   0.0000000   0.1428571   0.1111111), wk =   0.0063492
        k(    8) = (   0.0000000   0.1428571   0.2222222), wk =   0.0063492
        k(    9) = (   0.0000000   0.1428571   0.3333333), wk =   0.0063492
        k(   10) = (   0.0000000   0.1428571   0.4444444), wk =   0.0063492
        k(   11) = (   0.0000000   0.2857143   0.0000000), wk =   0.0063492
        k(   12) = (   0.0000000   0.2857143   0.1111111), wk =   0.0063492
        k(   13) = (   0.0000000   0.2857143   0.2222222), wk =   0.0063492
        k(   14) = (   0.0000000   0.2857143   0.3333333), wk =   0.0063492
        k(   15) = (   0.0000000   0.2857143   0.4444444), wk =   0.0063492
        k(   16) = (   0.0000000   0.4285714   0.0000000), wk =   0.0063492
        k(   17) = (   0.0000000   0.4285714   0.1111111), wk =   0.0063492
        k(   18) = (   0.0000000   0.4285714   0.2222222), wk =   0.0063492
        k(   19) = (   0.0000000   0.4285714   0.3333333), wk =   0.0063492
        k(   20) = (   0.0000000   0.4285714   0.4444444), wk =   0.0063492
        k(   21) = (   0.2000000   0.0000000   0.0000000), wk =   0.0063492
        k(   22) = (   0.2000000   0.0000000   0.1111111), wk =   0.0063492
        k(   23) = (   0.2000000   0.0000000   0.2222222), wk =   0.0063492
        k(   24) = (   0.2000000   0.0000000   0.3333333), wk =   0.0063492
        k(   25) = (   0.2000000   0.0000000   0.4444444), wk =   0.0063492
        k(   26) = (   0.2000000   0.1428571   0.0000000), wk =   0.0063492
        k(   27) = (   0.2000000   0.1428571   0.1111111), wk =   0.0063492
        k(   28) = (   0.2000000   0.1428571   0.2222222), wk =   0.0063492
        k(   29) = (   0.2000000   0.1428571   0.3333333), wk =   0.0063492
        k(   30) = (   0.2000000   0.1428571   0.4444444), wk =   0.0063492
        k(   31) = (   0.2000000   0.2857143   0.0000000), wk =   0.0063492
        k(   32) = (   0.2000000   0.2857143   0.1111111), wk =   0.0063492
        k(   33) = (   0.2000000   0.2857143   0.2222222), wk =   0.0063492
        k(   34) = (   0.2000000   0.2857143   0.3333333), wk =   0.0063492
        k(   35) = (   0.2000000   0.2857143   0.4444444), wk =   0.0063492
        k(   36) = (   0.2000000   0.4285714   0.0000000), wk =   0.0063492
        k(   37) = (   0.2000000   0.4285714   0.1111111), wk =   0.0063492
        k(   38) = (   0.2000000   0.4285714   0.2222222), wk =   0.0063492
        k(   39) = (   0.2000000   0.4285714   0.3333333), wk =   0.0063492
        k(   40) = (   0.2000000   0.4285714   0.4444444), wk =   0.0063492
        k(   41) = (   0.4000000   0.0000000   0.0000000), wk =   0.0063492
        k(   42) = (   0.4000000   0.0000000   0.1111111), wk =   0.0063492
        k(   43) = (   0.4000000   0.0000000   0.2222222), wk =   0.0063492
        k(   44) = (   0.4000000   0.0000000   0.3333333), wk =   0.0063492
        k(   45) = (   0.4000000   0.0000000   0.4444444), wk =   0.0063492
        k(   46) = (   0.4000000   0.1428571   0.0000000), wk =   0.0063492
        k(   47) = (   0.4000000   0.1428571   0.1111111), wk =   0.0063492
        k(   48) = (   0.4000000   0.1428571   0.2222222), wk =   0.0063492
        k(   49) = (   0.4000000   0.1428571   0.3333333), wk =   0.0063492
        k(   50) = (   0.4000000   0.1428571   0.4444444), wk =   0.0063492
        k(   51) = (   0.4000000   0.2857143   0.0000000), wk =   0.0063492
        k(   52) = (   0.4000000   0.2857143   0.1111111), wk =   0.0063492
        k(   53) = (   0.4000000   0.2857143   0.2222222), wk =   0.0063492
        k(   54) = (   0.4000000   0.2857143   0.3333333), wk =   0.0063492
        k(   55) = (   0.4000000   0.2857143   0.4444444), wk =   0.0063492
        k(   56) = (   0.4000000   0.4285714   0.0000000), wk =   0.0063492
        k(   57) = (   0.4000000   0.4285714   0.1111111), wk =   0.0063492
        k(   58) = (   0.4000000   0.4285714   0.2222222), wk =   0.0063492
        k(   59) = (   0.4000000   0.4285714   0.3333333), wk =   0.0063492
        k(   60) = (   0.4000000   0.4285714   0.4444444), wk =   0.0063492
        k(   61) = (   0.0000000   0.1428571  -0.1111111), wk =   0.0063492
        k(   62) = (   0.0000000   0.1428571  -0.2222222), wk =   0.0063492
        k(   63) = (   0.0000000   0.1428571  -0.3333333), wk =   0.0063492
        k(   64) = (   0.0000000   0.1428571  -0.4444444), wk =   0.0063492
        k(   65) = (   0.0000000   0.2857143  -0.1111111), wk =   0.0063492
        k(   66) = (   0.0000000   0.2857143  -0.2222222), wk =   0.0063492
        k(   67) = (   0.0000000   0.2857143  -0.3333333), wk =   0.0063492
        k(   68) = (   0.0000000   0.2857143  -0.4444444), wk =   0.0063492
        k(   69) = (   0.0000000   0.4285714  -0.1111111), wk =   0.0063492
        k(   70) = (   0.0000000   0.4285714  -0.2222222), wk =   0.0063492
        k(   71) = (   0.0000000   0.4285714  -0.3333333), wk =   0.0063492
        k(   72) = (   0.0000000   0.4285714  -0.4444444), wk =   0.0063492
        k(   73) = (   0.2000000   0.0000000  -0.1111111), wk =   0.0063492
        k(   74) = (   0.2000000   0.0000000  -0.2222222), wk =   0.0063492
        k(   75) = (   0.2000000   0.0000000  -0.3333333), wk =   0.0063492
        k(   76) = (   0.2000000   0.0000000  -0.4444444), wk =   0.0063492
        k(   77) = (  -0.2000000   0.1428571   0.0000000), wk =   0.0063492
        k(   78) = (  -0.2000000   0.1428571  -0.1111111), wk =   0.0063492
        k(   79) = (   0.2000000  -0.1428571  -0.1111111), wk =   0.0063492
        k(   80) = (  -0.2000000  -0.1428571   0.1111111), wk =   0.0063492
        k(   81) = (  -0.2000000   0.1428571  -0.2222222), wk =   0.0063492
        k(   82) = (   0.2000000  -0.1428571  -0.2222222), wk =   0.0063492
        k(   83) = (  -0.2000000  -0.1428571   0.2222222), wk =   0.0063492
        k(   84) = (  -0.2000000   0.1428571  -0.3333333), wk =   0.0063492
        k(   85) = (   0.2000000  -0.1428571  -0.3333333), wk =   0.0063492
        k(   86) = (  -0.2000000  -0.1428571   0.3333333), wk =   0.0063492
        k(   87) = (  -0.2000000   0.1428571  -0.4444444), wk =   0.0063492
        k(   88) = (   0.2000000  -0.1428571  -0.4444444), wk =   0.0063492
        k(   89) = (  -0.2000000  -0.1428571   0.4444444), wk =   0.0063492
        k(   90) = (  -0.2000000   0.2857143   0.0000000), wk =   0.0063492
        k(   91) = (  -0.2000000   0.2857143  -0.1111111), wk =   0.0063492
        k(   92) = (   0.2000000  -0.2857143  -0.1111111), wk =   0.0063492
        k(   93) = (  -0.2000000  -0.2857143   0.1111111), wk =   0.0063492
        k(   94) = (  -0.2000000   0.2857143  -0.2222222), wk =   0.0063492
        k(   95) = (   0.2000000  -0.2857143  -0.2222222), wk =   0.0063492
        k(   96) = (  -0.2000000  -0.2857143   0.2222222), wk =   0.0063492
        k(   97) = (  -0.2000000   0.2857143  -0.3333333), wk =   0.0063492
        k(   98) = (   0.2000000  -0.2857143  -0.3333333), wk =   0.0063492
        k(   99) = (  -0.2000000  -0.2857143   0.3333333), wk =   0.0063492
        k(  100) = (  -0.2000000   0.2857143  -0.4444444), wk =   0.0063492
        k(  101) = (   0.2000000  -0.2857143  -0.4444444), wk =   0.0063492
        k(  102) = (  -0.2000000  -0.2857143   0.4444444), wk =   0.0063492
        k(  103) = (  -0.2000000   0.4285714   0.0000000), wk =   0.0063492
        k(  104) = (  -0.2000000   0.4285714  -0.1111111), wk =   0.0063492
        k(  105) = (   0.2000000  -0.4285714  -0.1111111), wk =   0.0063492
        k(  106) = (  -0.2000000  -0.4285714   0.1111111), wk =   0.0063492
        k(  107) = (  -0.2000000   0.4285714  -0.2222222), wk =   0.0063492
        k(  108) = (   0.2000000  -0.4285714  -0.2222222), wk =   0.0063492
        k(  109) = (  -0.2000000  -0.4285714   0.2222222), wk =   0.0063492
        k(  110) = (  -0.2000000   0.4285714  -0.3333333), wk =   0.0063492
        k(  111) = (   0.2000000  -0.4285714  -0.3333333), wk =   0.0063492
        k(  112) = (  -0.2000000  -0.4285714   0.3333333), wk =   0.0063492
        k(  113) = (  -0.2000000   0.4285714  -0.4444444), wk =   0.0063492
        k(  114) = (   0.2000000  -0.4285714  -0.4444444), wk =   0.0063492
        k(  115) = (  -0.2000000  -0.4285714   0.4444444), wk =   0.0063492
        k(  116) = (   0.4000000   0.0000000  -0.1111111), wk =   0.0063492
        k(  117) = (   0.4000000   0.0000000  -0.2222222), wk =   0.0063492
        k(  118) = (   0.4000000   0.0000000  -0.3333333), wk =   0.0063492
        k(  119) = (   0.4000000   0.0000000  -0.4444444), wk =   0.0063492
        k(  120) = (  -0.4000000   0.1428571   0.0000000), wk =   0.0063492
        k(  121) = (  -0.4000000   0.1428571  -0.1111111), wk =   0.0063492
        k(  122) = (   0.4000000  -0.1428571  -0.1111111), wk =   0.0063492
        k(  123) = (  -0.4000000  -0.1428571   0.1111111), wk =   0.0063492
        k(  124) = (  -0.4000000   0.1428571  -0.2222222), wk =   0.0063492
        k(  125) = (   0.4000000  -0.1428571  -0.2222222), wk =   0.0063492
        k(  126) = (  -0.4000000  -0.1428571   0.2222222), wk =   0.0063492
        k(  127) = (  -0.4000000   0.1428571  -0.3333333), wk =   0.0063492
        k(  128) = (   0.4000000  -0.1428571  -0.3333333), wk =   0.0063492
        k(  129) = (  -0.4000000  -0.1428571   0.3333333), wk =   0.0063492
        k(  130) = (  -0.4000000   0.1428571  -0.4444444), wk =   0.0063492
        k(  131) = (   0.4000000  -0.1428571  -0.4444444), wk =   0.0063492
        k(  132) = (  -0.4000000  -0.1428571   0.4444444), wk =   0.0063492
        k(  133) = (  -0.4000000   0.2857143   0.0000000), wk =   0.0063492
        k(  134) = (  -0.4000000   0.2857143  -0.1111111), wk =   0.0063492
        k(  135) = (   0.4000000  -0.2857143  -0.1111111), wk =   0.0063492
        k(  136) = (  -0.4000000  -0.2857143   0.1111111), wk =   0.0063492
        k(  137) = (  -0.4000000   0.2857143  -0.2222222), wk =   0.0063492
        k(  138) = (   0.4000000  -0.2857143  -0.2222222), wk =   0.0063492
        k(  139) = (  -0.4000000  -0.2857143   0.2222222), wk =   0.0063492
        k(  140) = (  -0.4000000   0.2857143  -0.3333333), wk =   0.0063492
        k(  141) = (   0.4000000  -0.2857143  -0.3333333), wk =   0.0063492
        k(  142) = (  -0.4000000  -0.2857143   0.3333333), wk =   0.0063492
        k(  143) = (  -0.4000000   0.2857143  -0.4444444), wk =   0.0063492
        k(  144) = (   0.4000000  -0.2857143  -0.4444444), wk =   0.0063492
        k(  145) = (  -0.4000000  -0.2857143   0.4444444), wk =   0.0063492
        k(  146) = (  -0.4000000   0.4285714   0.0000000), wk =   0.0063492
        k(  147) = (  -0.4000000   0.4285714  -0.1111111), wk =   0.0063492
        k(  148) = (   0.4000000  -0.4285714  -0.1111111), wk =   0.0063492
        k(  149) = (  -0.4000000  -0.4285714   0.1111111), wk =   0.0063492
        k(  150) = (  -0.4000000   0.4285714  -0.2222222), wk =   0.0063492
        k(  151) = (   0.4000000  -0.4285714  -0.2222222), wk =   0.0063492
        k(  152) = (  -0.4000000  -0.4285714   0.2222222), wk =   0.0063492
        k(  153) = (  -0.4000000   0.4285714  -0.3333333), wk =   0.0063492
        k(  154) = (   0.4000000  -0.4285714  -0.3333333), wk =   0.0063492
        k(  155) = (  -0.4000000  -0.4285714   0.3333333), wk =   0.0063492
        k(  156) = (  -0.4000000   0.4285714  -0.4444444), wk =   0.0063492
        k(  157) = (   0.4000000  -0.4285714  -0.4444444), wk =   0.0063492
        k(  158) = (  -0.4000000  -0.4285714   0.4444444), wk =   0.0063492

     Dense  grid:  1428783 G-vectors     FFT dimensions: ( 216, 128, 108)

     Smooth grid:   322201 G-vectors     FFT dimensions: ( 135,  80,  64)

     Dynamical RAM for                 wfc:       2.19 MB

     Dynamical RAM for     wfc (w. buffer):     693.14 MB

     Dynamical RAM for           str. fact:       2.73 MB

     Dynamical RAM for           local pot:       0.00 MB

     Dynamical RAM for          nlocal pot:       5.37 MB

     Dynamical RAM for                qrad:      10.54 MB

     Dynamical RAM for          rho,v,vnew:       9.15 MB

     Dynamical RAM for               rhoin:       3.05 MB

     Dynamical RAM for            rho*nmix:      21.80 MB

     Dynamical RAM for           G-vectors:       2.63 MB

     Dynamical RAM for          h,s,v(r/c):       2.38 MB

     Dynamical RAM for          <psi|beta>:       0.49 MB

     Dynamical RAM for                 psi:       4.37 MB

     Dynamical RAM for                hpsi:       4.37 MB

     Dynamical RAM for                spsi:       4.37 MB

     Dynamical RAM for      wfcinit/wfcrot:       5.69 MB

     Dynamical RAM for           addusdens:     138.31 MB

     Dynamical RAM for          addusforce:     158.87 MB

     Dynamical RAM for         addusstress:     137.97 MB

     Estimated static dynamical RAM per process >     756.88 MB

     Estimated max dynamical RAM per process >     915.75 MB

     Estimated total dynamical RAM >      28.62 GB

     Check: negative core charge=   -0.000003
     Generating pointlists ...
     new r_m :   0.0762 (alat units)  1.5477 (a.u.) for type    1
     new r_m :   0.0837 (alat units)  1.7008 (a.u.) for type    2
     new r_m :   0.0609 (alat units)  1.2365 (a.u.) for type    3
     new r_m :   0.0609 (alat units)  1.2365 (a.u.) for type    4

     Initial potential from superposition of free atoms

     starting charge  188.99132, renormalised to  189.00000
     Starting wfcs are  137 randomized atomic wfcs
     Checking if some PAW data can be deallocated... 
       PAW data deallocated on   24 nodes for type:  1
       PAW data deallocated on   16 nodes for type:  3

     total cpu time spent up to now is     1365.0 secs

     Self-consistent Calculation

     iteration #  1     ecut=   100.00 Ry     beta= 0.40
     Davidson diagonalization with overlap
     ethr =  1.00E-02,  avg # of iterations =  2.9

     negative rho (up, down):  0.000E+00 1.147E-04

     total cpu time spent up to now is     4951.0 secs

     total energy              =   -2123.60550269 Ry
     estimated scf accuracy    <       7.08375823 Ry

     total magnetization       =    19.00 Bohr mag/cell
     absolute magnetization    =    19.00 Bohr mag/cell

     iteration #  2     ecut=   100.00 Ry     beta= 0.40
     Davidson diagonalization with overlap
     ethr =  3.75E-03,  avg # of iterations =  2.0

     negative rho (up, down):  0.000E+00 6.384E-05

     total cpu time spent up to now is     8386.8 secs

     total energy              =   -2121.31903109 Ry
     estimated scf accuracy    <      29.56506267 Ry

     total magnetization       =     8.61 Bohr mag/cell
     absolute magnetization    =     9.04 Bohr mag/cell

     iteration #  3     ecut=   100.00 Ry     beta= 0.40
     Davidson diagonalization with overlap
     ethr =  3.75E-03,  avg # of iterations =  2.0

     negative rho (up, down):  0.000E+00 6.888E-05

     total cpu time spent up to now is    11241.3 secs

     total energy              =   -2124.57107155 Ry
     estimated scf accuracy    <      15.11362334 Ry

     total magnetization       =    11.47 Bohr mag/cell
     absolute magnetization    =    11.95 Bohr mag/cell

     iteration #  4     ecut=   100.00 Ry     beta= 0.40
     Davidson diagonalization with overlap
     ethr =  3.75E-03,  avg # of iterations =  2.0

     negative rho (up, down):  0.000E+00 1.253E-04

     total cpu time spent up to now is    14085.0 secs

     total energy              =   -2125.55928402 Ry
     estimated scf accuracy    <       6.74359939 Ry

     total magnetization       =    15.06 Bohr mag/cell
     absolute magnetization    =    15.21 Bohr mag/cell

     iteration #  5     ecut=   100.00 Ry     beta= 0.40
     Davidson diagonalization with overlap
     ethr =  3.57E-03,  avg # of iterations =  1.5

     negative rho (up, down):  0.000E+00 2.834E-04

     total cpu time spent up to now is    16831.8 secs

     total energy              =   -2125.88713828 Ry
     estimated scf accuracy    <       0.90805226 Ry

     total magnetization       =    19.00 Bohr mag/cell
     absolute magnetization    =    19.00 Bohr mag/cell

     iteration #  6     ecut=   100.00 Ry     beta= 0.40
     Davidson diagonalization with overlap
     ethr =  4.80E-04,  avg # of iterations =  1.4

     negative rho (up, down):  0.000E+00 4.906E-04

     total cpu time spent up to now is    19565.8 secs

     total energy              =   -2125.85488180 Ry
     estimated scf accuracy    <       0.40039515 Ry

     total magnetization       =    19.00 Bohr mag/cell
     absolute magnetization    =    19.00 Bohr mag/cell

     iteration #  7     ecut=   100.00 Ry     beta= 0.40
     Davidson diagonalization with overlap
     ethr =  2.12E-04,  avg # of iterations =  4.8

     negative rho (up, down):  0.000E+00 6.621E-04

     total cpu time spent up to now is    22658.1 secs

     total energy              =   -2125.87043108 Ry
     estimated scf accuracy    <       0.07122830 Ry

     total magnetization       =    19.00 Bohr mag/cell
     absolute magnetization    =    19.01 Bohr mag/cell

     iteration #  8     ecut=   100.00 Ry     beta= 0.40
     Davidson diagonalization with overlap
     c_bands:  1 eigenvalues not converged
     c_bands:  1 eigenvalues not converged
     c_bands:  1 eigenvalues not converged
     c_bands:  1 eigenvalues not converged
     c_bands:  1 eigenvalues not converged
     c_bands:  1 eigenvalues not converged
     ethr =  3.77E-05,  avg # of iterations = 13.4

     negative rho (up, down):  0.000E+00 8.166E-04

     total cpu time spent up to now is    27219.9 secs

     total energy              =   -2125.88439589 Ry
     estimated scf accuracy    <       0.00877958 Ry

     total magnetization       =    19.00 Bohr mag/cell
     absolute magnetization    =    19.02 Bohr mag/cell

     iteration #  9     ecut=   100.00 Ry     beta= 0.40
     Davidson diagonalization with overlap
     c_bands:  1 eigenvalues not converged
     c_bands:  1 eigenvalues not converged
     c_bands:  1 eigenvalues not converged
     c_bands:  1 eigenvalues not converged
     c_bands:  1 eigenvalues not converged
     c_bands:  1 eigenvalues not converged
     c_bands:  1 eigenvalues not converged
     c_bands:  1 eigenvalues not converged
     c_bands:  1 eigenvalues not converged
     c_bands:  1 eigenvalues not converged
     c_bands:  1 eigenvalues not converged
     c_bands:  1 eigenvalues not converged
     c_bands:  1 eigenvalues not converged
     c_bands:  1 eigenvalues not converged
     c_bands:  1 eigenvalues not converged
     ethr =  4.65E-06,  avg # of iterations =  9.1

     negative rho (up, down):  0.000E+00 8.246E-04

     total cpu time spent up to now is    32306.2 secs

     total energy              =   -2125.88912033 Ry
     estimated scf accuracy    <       0.01388355 Ry

     total magnetization       =    19.00 Bohr mag/cell
     absolute magnetization    =    19.04 Bohr mag/cell

     iteration # 10     ecut=   100.00 Ry     beta= 0.40
     Davidson diagonalization with overlap
     ethr =  4.65E-06,  avg # of iterations =  1.4

     negative rho (up, down):  0.000E+00 8.230E-04

     total cpu time spent up to now is    35037.6 secs

     total energy              =   -2125.88966061 Ry
     estimated scf accuracy    <       0.00044678 Ry

     total magnetization       =    19.00 Bohr mag/cell
     absolute magnetization    =    19.05 Bohr mag/cell

     iteration # 11     ecut=   100.00 Ry     beta= 0.40
     Davidson diagonalization with overlap
     c_bands:  1 eigenvalues not converged
     c_bands:  1 eigenvalues not converged
     c_bands:  1 eigenvalues not converged
     ethr =  2.36E-07,  avg # of iterations =  4.2

     negative rho (up, down):  0.000E+00 8.283E-04

     total cpu time spent up to now is    38535.0 secs

     total energy              =   -2125.88979951 Ry
     estimated scf accuracy    <       0.00082452 Ry

     total magnetization       =    19.00 Bohr mag/cell
     absolute magnetization    =    19.05 Bohr mag/cell

     iteration # 12     ecut=   100.00 Ry     beta= 0.40
     Davidson diagonalization with overlap
     ethr =  2.36E-07,  avg # of iterations =  1.9

     negative rho (up, down):  0.000E+00 8.240E-04

     total cpu time spent up to now is    41358.5 secs

     total energy              =   -2125.88986410 Ry
     estimated scf accuracy    <       0.00024138 Ry

     total magnetization       =    19.00 Bohr mag/cell
     absolute magnetization    =    19.05 Bohr mag/cell

     iteration # 13     ecut=   100.00 Ry     beta= 0.40
     Davidson diagonalization with overlap
     ethr =  1.28E-07,  avg # of iterations =  1.0

     negative rho (up, down):  0.000E+00 8.222E-04

     total cpu time spent up to now is    44057.7 secs

     total energy              =   -2125.88987645 Ry
     estimated scf accuracy    <       0.00010826 Ry

     total magnetization       =    19.00 Bohr mag/cell
     absolute magnetization    =    19.06 Bohr mag/cell

     iteration # 14     ecut=   100.00 Ry     beta= 0.40
     Davidson diagonalization with overlap
     ethr =  5.73E-08,  avg # of iterations =  1.3

     negative rho (up, down):  0.000E+00 8.230E-04

     total cpu time spent up to now is    46804.9 secs

     total energy              =   -2125.88988562 Ry
     estimated scf accuracy    <       0.00000807 Ry

     total magnetization       =    19.00 Bohr mag/cell
     absolute magnetization    =    19.06 Bohr mag/cell

     iteration # 15     ecut=   100.00 Ry     beta= 0.40
     Davidson diagonalization with overlap
     ethr =  4.27E-09,  avg # of iterations =  5.4

     negative rho (up, down):  0.000E+00 8.221E-04

     total cpu time spent up to now is    51557.5 secs

     total energy              =   -2125.88989177 Ry
     estimated scf accuracy    <       0.00000219 Ry

     total magnetization       =    19.00 Bohr mag/cell
     absolute magnetization    =    19.06 Bohr mag/cell

     iteration # 16     ecut=   100.00 Ry     beta= 0.40
     Davidson diagonalization with overlap
     ethr =  1.16E-09,  avg # of iterations =  2.2

     negative rho (up, down):  0.000E+00 8.218E-04

     total cpu time spent up to now is    54595.0 secs

     total energy              =   -2125.88989236 Ry
     estimated scf accuracy    <       0.00000237 Ry

     total magnetization       =    19.00 Bohr mag/cell
     absolute magnetization    =    19.06 Bohr mag/cell

     iteration # 17     ecut=   100.00 Ry     beta= 0.40
     Davidson diagonalization with overlap
     ethr =  1.16E-09,  avg # of iterations =  1.0

     negative rho (up, down):  0.000E+00 8.215E-04

     total cpu time spent up to now is    57292.4 secs

     total energy              =   -2125.88989262 Ry
     estimated scf accuracy    <       0.00000016 Ry

     total magnetization       =    19.00 Bohr mag/cell
     absolute magnetization    =    19.06 Bohr mag/cell

     iteration # 18     ecut=   100.00 Ry     beta= 0.40
     Davidson diagonalization with overlap
     ethr =  8.53E-11,  avg # of iterations =  4.4

     negative rho (up, down):  0.000E+00 8.215E-04

     total cpu time spent up to now is    61368.5 secs

     total energy              =   -2125.88989277 Ry
     estimated scf accuracy    <       0.00000029 Ry

     total magnetization       =    19.00 Bohr mag/cell
     absolute magnetization    =    19.06 Bohr mag/cell

     iteration # 19     ecut=   100.00 Ry     beta= 0.40
     Davidson diagonalization with overlap
     ethr =  8.53E-11,  avg # of iterations =  2.0

     negative rho (up, down):  0.000E+00 8.215E-04

     total cpu time spent up to now is    64273.6 secs

     total energy              =   -2125.88989283 Ry
     estimated scf accuracy    <       0.00000007 Ry

     total magnetization       =    19.00 Bohr mag/cell
     absolute magnetization    =    19.06 Bohr mag/cell

     iteration # 20     ecut=   100.00 Ry     beta= 0.40
     Davidson diagonalization with overlap
     ethr =  3.92E-11,  avg # of iterations =  2.0

     negative rho (up, down):  0.000E+00 8.215E-04

     total cpu time spent up to now is    67169.4 secs

     total energy              =   -2125.88989285 Ry
     estimated scf accuracy    <       0.00000002 Ry

     total magnetization       =    19.00 Bohr mag/cell
     absolute magnetization    =    19.06 Bohr mag/cell

     iteration # 21     ecut=   100.00 Ry     beta= 0.40
     Davidson diagonalization with overlap
     ethr =  8.58E-12,  avg # of iterations =  2.3

     negative rho (up, down):  0.000E+00 8.216E-04

     total cpu time spent up to now is    70186.2 secs

     total energy              =   -2125.88989286 Ry
     estimated scf accuracy    <          8.4E-09 Ry

     total magnetization       =    19.00 Bohr mag/cell
     absolute magnetization    =    19.06 Bohr mag/cell

     iteration # 22     ecut=   100.00 Ry     beta= 0.40
     Davidson diagonalization with overlap
     ethr =  4.43E-12,  avg # of iterations =  2.2

     negative rho (up, down):  0.000E+00 8.216E-04

     total cpu time spent up to now is    73277.5 secs

     total energy              =   -2125.88989287 Ry
     estimated scf accuracy    <       0.00000002 Ry

     total magnetization       =    19.00 Bohr mag/cell
     absolute magnetization    =    19.06 Bohr mag/cell

     iteration # 23     ecut=   100.00 Ry     beta= 0.40
     Davidson diagonalization with overlap
     ethr =  4.43E-12,  avg # of iterations =  2.0

     negative rho (up, down):  0.000E+00 8.216E-04

     total cpu time spent up to now is    76174.3 secs

     total energy              =   -2125.88989287 Ry
     estimated scf accuracy    <          8.6E-10 Ry

     total magnetization       =    19.00 Bohr mag/cell
     absolute magnetization    =    19.06 Bohr mag/cell

     iteration # 24     ecut=   100.00 Ry     beta= 0.40
     Davidson diagonalization with overlap
     ethr =  4.53E-13,  avg # of iterations =  4.6

     negative rho (up, down):  0.000E+00 8.216E-04

     total cpu time spent up to now is    80160.8 secs

     total energy              =   -2125.88989287 Ry
     estimated scf accuracy    <          3.8E-10 Ry

     total magnetization       =    19.00 Bohr mag/cell
     absolute magnetization    =    19.06 Bohr mag/cell

     iteration # 25     ecut=   100.00 Ry     beta= 0.40
     Davidson diagonalization with overlap
     ethr =  1.99E-13,  avg # of iterations =  2.2

     negative rho (up, down):  0.000E+00 8.216E-04

     total cpu time spent up to now is    83409.1 secs

     total energy              =   -2125.88989287 Ry
     estimated scf accuracy    <          3.3E-10 Ry

     total magnetization       =    19.00 Bohr mag/cell
     absolute magnetization    =    19.06 Bohr mag/cell

     iteration # 26     ecut=   100.00 Ry     beta= 0.40
     Davidson diagonalization with overlap
     ethr =  1.75E-13,  avg # of iterations =  1.5

     negative rho (up, down):  0.000E+00 8.216E-04

     Magnetic moment per site:
     atom:    1    charge:    7.8738    magn:    0.0007    constr:    0.0000
     atom:    2    charge:   13.0199    magn:    3.6582    constr:    0.0000
     atom:    3    charge:   13.0221    magn:    3.6495    constr:    0.0000
     atom:    4    charge:   13.0199    magn:    3.6582    constr:    0.0000
     atom:    5    charge:   13.0221    magn:    3.6495    constr:    0.0000
     atom:    6    charge:    0.9119    magn:    0.0093    constr:    0.0000
     atom:    7    charge:    0.8989    magn:    0.0102    constr:    0.0000
     atom:    8    charge:    0.9119    magn:    0.0093    constr:    0.0000
     atom:    9    charge:    0.8989    magn:    0.0102    constr:    0.0000
     atom:   10    charge:    4.3602    magn:    0.1524    constr:    0.0000
     atom:   11    charge:    4.3765    magn:    0.1163    constr:    0.0000
     atom:   12    charge:    4.3603    magn:    0.1524    constr:    0.0000
     atom:   13    charge:    4.3765    magn:    0.1163    constr:    0.0000
     atom:   14    charge:    4.3719    magn:    0.1228    constr:    0.0000
     atom:   15    charge:    4.3883    magn:    0.0914    constr:    0.0000
     atom:   16    charge:    4.3719    magn:    0.1228    constr:    0.0000
     atom:   17    charge:    4.3883    magn:    0.0914    constr:    0.0000
     atom:   18    charge:    4.3723    magn:    0.1446    constr:    0.0000
     atom:   19    charge:    4.3635    magn:    0.1439    constr:    0.0000
     atom:   20    charge:    4.3699    magn:    0.1295    constr:    0.0000
     atom:   21    charge:    4.3745    magn:    0.1586    constr:    0.0000
     atom:   22    charge:    4.3723    magn:    0.1446    constr:    0.0000
     atom:   23    charge:    4.3635    magn:    0.1439    constr:    0.0000
     atom:   24    charge:    4.3699    magn:    0.1295    constr:    0.0000
     atom:   25    charge:    4.3745    magn:    0.1586    constr:    0.0000

     total cpu time spent up to now is    86159.5 secs

     End of self-consistent calculation

 ------ SPIN UP ------------


          k = 0.0000 0.0000 0.0000 ( 40357 PWs)   bands (ev):

   -86.2895 -86.2877 -86.2664 -86.2661 -52.4774 -52.4771 -52.3510 -52.3490
   -52.2887 -52.2870 -52.2092 -52.2075 -52.2066 -52.2062 -52.0929 -52.0924
   -46.4133 -18.4860 -18.3933 -18.3463 -16.6063 -16.4289 -16.3901 -16.2023
   -14.4894 -14.3974 -14.3737 -14.3082 -14.2274 -14.2194 -14.0958 -14.0719
   -14.0346 -14.0301 -13.9415 -13.9185  -5.1192  -4.8265  -4.4395  -4.3700
    -2.8630  -2.8092  -2.4326  -2.3906  -2.1473  -1.9896  -1.9859  -1.8719
    -1.8536  -1.7612  -1.6649  -1.5688  -0.9783  -0.9142  -0.6301  -0.5009
    -0.4626  -0.3938  -0.3495  -0.2853  -0.1056  -0.0991   0.0982   0.1362
     0.3000   0.3424   0.4404   0.4700   0.5753   0.6688   0.8528   0.8781
     0.9751   1.0333   1.1403   1.1773   1.3059   1.3647   1.4588   1.5142
     1.5882   1.7619   1.7999   1.8116   1.9859   2.0393   2.1113   2.1798
     2.2221   2.4456   2.5194   2.5251   2.6942   2.7346   2.8422   2.9535
     2.9685   2.9801   3.1318   3.1721   3.1749   3.2517   3.5953   3.6007
     7.2652   9.0141   9.5271   9.9334  10.3623  11.2086  11.2930  11.4881
    11.5835  11.6423

     occupation numbers 
     1.0000   1.0000   1.0000   1.0000   1.0000   1.0000   1.0000   1.0000
     1.0000   1.0000   1.0000   1.0000   1.0000   1.0000   1.0000   1.0000
     1.0000   1.0000   1.0000   1.0000   1.0000   1.0000   1.0000   1.0000
     1.0000   1.0000   1.0000   1.0000   1.0000   1.0000   1.0000   1.0000
     1.0000   1.0000   1.0000   1.0000   1.0000   1.0000   1.0000   1.0000
     1.0000   1.0000   1.0000   1.0000   1.0000   1.0000   1.0000   1.0000
     1.0000   1.0000   1.0000   1.0000   1.0000   1.0000   1.0000   1.0000
     1.0000   1.0000   1.0000   1.0000   1.0000   1.0000   1.0000   1.0000
     1.0000   1.0000   1.0000   1.0000   1.0000   1.0000   1.0000   1.0000
     1.0000   1.0000   1.0000   1.0000   1.0000   1.0000   1.0000   1.0000
     1.0000   1.0000   1.0000   1.0000   1.0000   1.0000   1.0000   1.0000
     1.0000   1.0000   1.0000   1.0000   1.0000   1.0000   1.0000   1.0000
     1.0000   1.0000   1.0000   1.0000   1.0000   1.0000   1.0000   1.0000
     0.0000   0.0000   0.0000   0.0000   0.0000   0.0000   0.0000   0.0000
     0.0000   0.0000

          k = 0.0000 0.0000 0.2337 ( 40255 PWs)   bands (ev):

   -86.2895 -86.2877 -86.2664 -86.2661 -52.4774 -52.4771 -52.3510 -52.3490
   -52.2887 -52.2870 -52.2092 -52.2075 -52.2066 -52.2062 -52.0929 -52.0924
   -46.4133 -18.4860 -18.3933 -18.3464 -16.5937 -16.4247 -16.3812 -16.2043
   -14.4980 -14.4178 -14.3597 -14.3073 -14.2300 -14.2161 -14.1092 -14.0828
   -14.0326 -14.0304 -13.9497 -13.9183  -5.0928  -4.8151  -4.4545  -4.3423
    -2.8449  -2.7948  -2.4550  -2.3594  -2.1450  -1.9934  -1.9521  -1.9010
    -1.8079  -1.7750  -1.6809  -1.5601  -0.9659  -0.9102  -0.6280  -0.5085
    -0.4734  -0.4080  -0.3235  -0.2894  -0.1143  -0.0763   0.0894   0.1172
     0.2539   0.3555   0.4360   0.4889   0.5626   0.7288   0.8043   0.8916
     0.9854   1.0373   1.1251   1.1617   1.2528   1.3552   1.4687   1.5353
     1.5768   1.7494   1.7965   1.8124   1.9647   1.9953   2.1169   2.1711
     2.2274   2.4219   2.5185   2.5556   2.6670   2.7357   2.8547   2.8950
     2.9573   3.0026   3.1196   3.1654   3.1874   3.2634   3.5938   3.6048
     7.4041   9.0782   9.5652   9.9580  10.4054  11.1319  11.2941  11.4358
    11.5717  11.6383

     occupation numbers 
     1.0000   1.0000   1.0000   1.0000   1.0000   1.0000   1.0000   1.0000
     1.0000   1.0000   1.0000   1.0000   1.0000   1.0000   1.0000   1.0000
     1.0000   1.0000   1.0000   1.0000   1.0000   1.0000   1.0000   1.0000
     1.0000   1.0000   1.0000   1.0000   1.0000   1.0000   1.0000   1.0000
     1.0000   1.0000   1.0000   1.0000   1.0000   1.0000   1.0000   1.0000
     1.0000   1.0000   1.0000   1.0000   1.0000   1.0000   1.0000   1.0000
     1.0000   1.0000   1.0000   1.0000   1.0000   1.0000   1.0000   1.0000
     1.0000   1.0000   1.0000   1.0000   1.0000   1.0000   1.0000   1.0000
     1.0000   1.0000   1.0000   1.0000   1.0000   1.0000   1.0000   1.0000
     1.0000   1.0000   1.0000   1.0000   1.0000   1.0000   1.0000   1.0000
     1.0000   1.0000   1.0000   1.0000   1.0000   1.0000   1.0000   1.0000
     1.0000   1.0000   1.0000   1.0000   1.0000   1.0000   1.0000   1.0000
     1.0000   1.0000   1.0000   1.0000   1.0000   1.0000   1.0000   1.0000
     0.0000   0.0000   0.0000   0.0000   0.0000   0.0000   0.0000   0.0000
     0.0000   0.0000

          k = 0.0000 0.0000 0.4675 ( 40285 PWs)   bands (ev):

   -86.2895 -86.2877 -86.2664 -86.2661 -52.4774 -52.4771 -52.3510 -52.3490
   -52.2887 -52.2870 -52.2092 -52.2075 -52.2066 -52.2062 -52.0929 -52.0924
   -46.4133 -18.4860 -18.3933 -18.3467 -16.5595 -16.4132 -16.3586 -16.2121
   -14.5213 -14.4517 -14.3420 -14.3065 -14.2357 -14.2133 -14.1284 -14.1040
   -14.0389 -14.0328 -13.9676 -13.9221  -5.0238  -4.7854  -4.4633  -4.3070
    -2.8197  -2.7383  -2.4466  -2.3407  -2.1400  -1.9876  -1.9454  -1.8608
    -1.8039  -1.7578  -1.6909  -1.5667  -0.9522  -0.8821  -0.6040  -0.5298
    -0.4585  -0.4288  -0.3164  -0.2593  -0.1133  -0.0520   0.0338   0.1170
     0.2319   0.3408   0.4203   0.4972   0.5755   0.7100   0.8343   0.8495
     0.9388   1.0155   1.1088   1.1190   1.1960   1.3833   1.4676   1.5059
     1.5774   1.7104   1.7570   1.8206   1.8449   1.9372   2.1373   2.1930
     2.2488   2.3968   2.5103   2.5576   2.6339   2.7665   2.8417   2.8796
     2.9423   2.9825   3.0839   3.1598   3.2144   3.2862   3.5862   3.6107
     7.7744   9.2424   9.6430  10.0255  10.5235  10.8980  11.2665  11.3259
    11.4959  11.6512

     occupation numbers 
     1.0000   1.0000   1.0000   1.0000   1.0000   1.0000   1.0000   1.0000
     1.0000   1.0000   1.0000   1.0000   1.0000   1.0000   1.0000   1.0000
     1.0000   1.0000   1.0000   1.0000   1.0000   1.0000   1.0000   1.0000
     1.0000   1.0000   1.0000   1.0000   1.0000   1.0000   1.0000   1.0000
     1.0000   1.0000   1.0000   1.0000   1.0000   1.0000   1.0000   1.0000
     1.0000   1.0000   1.0000   1.0000   1.0000   1.0000   1.0000   1.0000
     1.0000   1.0000   1.0000   1.0000   1.0000   1.0000   1.0000   1.0000
     1.0000   1.0000   1.0000   1.0000   1.0000   1.0000   1.0000   1.0000
     1.0000   1.0000   1.0000   1.0000   1.0000   1.0000   1.0000   1.0000
     1.0000   1.0000   1.0000   1.0000   1.0000   1.0000   1.0000   1.0000
     1.0000   1.0000   1.0000   1.0000   1.0000   1.0000   1.0000   1.0000
     1.0000   1.0000   1.0000   1.0000   1.0000   1.0000   1.0000   1.0000
     1.0000   1.0000   1.0000   1.0000   1.0000   1.0000   1.0000   1.0000
     0.0000   0.0000   0.0000   0.0000   0.0000   0.0000   0.0000   0.0000
     0.0000   0.0000

          k = 0.0000 0.0000 0.7012 ( 40253 PWs)   bands (ev):

   -86.2895 -86.2877 -86.2664 -86.2661 -52.4774 -52.4771 -52.3510 -52.3490
   -52.2887 -52.2870 -52.2092 -52.2075 -52.2066 -52.2062 -52.0929 -52.0924
   -46.4133 -18.4860 -18.3933 -18.3470 -16.5157 -16.3980 -16.3312 -16.2283
   -14.5493 -14.4859 -14.3260 -14.3062 -14.2434 -14.2252 -14.1345 -14.1137
   -14.0484 -14.0430 -13.9828 -13.9343  -4.9413  -4.7496  -4.4517  -4.2995
    -2.7965  -2.6691  -2.3938  -2.3429  -2.1434  -1.9849  -1.9650  -1.8541
    -1.7650  -1.7347  -1.6626  -1.6002  -0.9456  -0.8440  -0.5544  -0.4739
    -0.4560  -0.4230  -0.2931  -0.2461  -0.0729  -0.0433   0.0272   0.0810
     0.2490   0.3090   0.3835   0.4722   0.5564   0.6174   0.7378   0.8133
     0.8877   0.9978   1.0379   1.1389   1.2288   1.3844   1.4099   1.4358
     1.5933   1.6543   1.6710   1.7342   1.8493   1.9790   2.1282   2.2036
     2.2991   2.3677   2.4786   2.5363   2.6559   2.7995   2.8661   2.9067
     2.9257   2.9481   3.0320   3.1279   3.2506   3.3113   3.5730   3.6121
     8.2772   9.3946   9.7152  10.1086  10.4356  10.8394  11.2007  11.2064
    11.3873  11.6522

     occupation numbers 
     1.0000   1.0000   1.0000   1.0000   1.0000   1.0000   1.0000   1.0000
     1.0000   1.0000   1.0000   1.0000   1.0000   1.0000   1.0000   1.0000
     1.0000   1.0000   1.0000   1.0000   1.0000   1.0000   1.0000   1.0000
     1.0000   1.0000   1.0000   1.0000   1.0000   1.0000   1.0000   1.0000
     1.0000   1.0000   1.0000   1.0000   1.0000   1.0000   1.0000   1.0000
     1.0000   1.0000   1.0000   1.0000   1.0000   1.0000   1.0000   1.0000
     1.0000   1.0000   1.0000   1.0000   1.0000   1.0000   1.0000   1.0000
     1.0000   1.0000   1.0000   1.0000   1.0000   1.0000   1.0000   1.0000
     1.0000   1.0000   1.0000   1.0000   1.0000   1.0000   1.0000   1.0000
     1.0000   1.0000   1.0000   1.0000   1.0000   1.0000   1.0000   1.0000
     1.0000   1.0000   1.0000   1.0000   1.0000   1.0000   1.0000   1.0000
     1.0000   1.0000   1.0000   1.0000   1.0000   1.0000   1.0000   1.0000
     1.0000   1.0000   1.0000   1.0000   1.0000   1.0000   1.0000   1.0000
     0.0000   0.0000   0.0000   0.0000   0.0000   0.0000   0.0000   0.0000
     0.0000   0.0000

          k = 0.0000 0.0000 0.9349 ( 40286 PWs)   bands (ev):

   -86.2895 -86.2877 -86.2664 -86.2661 -52.4774 -52.4771 -52.3510 -52.3490
   -52.2887 -52.2870 -52.2092 -52.2075 -52.2066 -52.2062 -52.0929 -52.0924
   -46.4133 -18.4860 -18.3933 -18.3472 -16.4834 -16.3858 -16.3095 -16.2482
   -14.5677 -14.5084 -14.3148 -14.3057 -14.2528 -14.2360 -14.1523 -14.0883
   -14.0571 -14.0558 -13.9897 -13.9486  -4.8851  -4.7247  -4.4281  -4.3175
    -2.7756  -2.6293  -2.3483  -2.3387  -2.1562  -1.9997  -1.9642  -1.8753
    -1.7442  -1.7044  -1.6409  -1.6201  -0.9410  -0.8156  -0.5441  -0.4578
    -0.3890  -0.3715  -0.2287  -0.1890  -0.0797  -0.0376   0.0444   0.0877
     0.2168   0.2512   0.3250   0.4190   0.4652   0.5282   0.6701   0.8259
     0.9060   0.9558   1.0339   1.1055   1.2507   1.3105   1.3526   1.4252
     1.5810   1.6189   1.6806   1.7389   1.8310   2.0340   2.0844   2.2041
     2.3274   2.3492   2.4703   2.5150   2.7362   2.8153   2.8739   2.9057
     2.9288   2.9460   2.9647   3.1107   3.2677   3.3305   3.5621   3.6109
     8.8020   9.2712   9.8604  10.0646  10.2558  10.9613  11.1211  11.1822
    11.3386  11.5804

     occupation numbers 
     1.0000   1.0000   1.0000   1.0000   1.0000   1.0000   1.0000   1.0000
     1.0000   1.0000   1.0000   1.0000   1.0000   1.0000   1.0000   1.0000
     1.0000   1.0000   1.0000   1.0000   1.0000   1.0000   1.0000   1.0000
     1.0000   1.0000   1.0000   1.0000   1.0000   1.0000   1.0000   1.0000
     1.0000   1.0000   1.0000   1.0000   1.0000   1.0000   1.0000   1.0000
     1.0000   1.0000   1.0000   1.0000   1.0000   1.0000   1.0000   1.0000
     1.0000   1.0000   1.0000   1.0000   1.0000   1.0000   1.0000   1.0000
     1.0000   1.0000   1.0000   1.0000   1.0000   1.0000   1.0000   1.0000
     1.0000   1.0000   1.0000   1.0000   1.0000   1.0000   1.0000   1.0000
     1.0000   1.0000   1.0000   1.0000   1.0000   1.0000   1.0000   1.0000
     1.0000   1.0000   1.0000   1.0000   1.0000   1.0000   1.0000   1.0000
     1.0000   1.0000   1.0000   1.0000   1.0000   1.0000   1.0000   1.0000
     1.0000   1.0000   1.0000   1.0000   1.0000   1.0000   1.0000   1.0000
     0.0000   0.0000   0.0000   0.0000   0.0000   0.0000   0.0000   0.0000
     0.0000   0.0000

          k = 0.0000 0.2391 0.0000 ( 40305 PWs)   bands (ev):

   -86.2895 -86.2877 -86.2664 -86.2661 -52.4774 -52.4771 -52.3510 -52.3490
   -52.2887 -52.2870 -52.2092 -52.2074 -52.2066 -52.2062 -52.0929 -52.0924
   -46.4133 -18.4865 -18.3939 -18.3463 -16.5911 -16.4249 -16.3876 -16.2144
   -14.5069 -14.3877 -14.3801 -14.3080 -14.2674 -14.1940 -14.1026 -14.0639
   -14.0356 -14.0222 -13.9420 -13.9143  -5.0867  -4.7973  -4.4505  -4.3688
    -2.8422  -2.7764  -2.4324  -2.3759  -2.1541  -2.0240  -1.9666  -1.8544
    -1.8406  -1.7671  -1.6697  -1.5516  -0.9853  -0.9311  -0.6505  -0.6019
    -0.4430  -0.3883  -0.3377  -0.3119  -0.1377  -0.0742   0.1306   0.1479
     0.2883   0.3444   0.3997   0.4690   0.6005   0.6848   0.7877   0.8766
     0.9332   1.0598   1.0993   1.1793   1.3020   1.3492   1.3846   1.5502
     1.5921   1.7391   1.7895   1.8172   1.9984   2.0449   2.1215   2.2196
     2.2477   2.3526   2.5214   2.5488   2.6647   2.7115   2.8180   2.8943
     2.9731   3.0207   3.1140   3.1740   3.2572   3.3407   3.5944   3.6211
     7.4172   9.0882   9.6155   9.8468  10.3586  11.1199  11.2772  11.4815
    11.5305  11.6652

     occupation numbers 
     1.0000   1.0000   1.0000   1.0000   1.0000   1.0000   1.0000   1.0000
     1.0000   1.0000   1.0000   1.0000   1.0000   1.0000   1.0000   1.0000
     1.0000   1.0000   1.0000   1.0000   1.0000   1.0000   1.0000   1.0000
     1.0000   1.0000   1.0000   1.0000   1.0000   1.0000   1.0000   1.0000
     1.0000   1.0000   1.0000   1.0000   1.0000   1.0000   1.0000   1.0000
     1.0000   1.0000   1.0000   1.0000   1.0000   1.0000   1.0000   1.0000
     1.0000   1.0000   1.0000   1.0000   1.0000   1.0000   1.0000   1.0000
     1.0000   1.0000   1.0000   1.0000   1.0000   1.0000   1.0000   1.0000
     1.0000   1.0000   1.0000   1.0000   1.0000   1.0000   1.0000   1.0000
     1.0000   1.0000   1.0000   1.0000   1.0000   1.0000   1.0000   1.0000
     1.0000   1.0000   1.0000   1.0000   1.0000   1.0000   1.0000   1.0000
     1.0000   1.0000   1.0000   1.0000   1.0000   1.0000   1.0000   1.0000
     1.0000   1.0000   1.0000   1.0000   1.0000   1.0000   1.0000   1.0000
     0.0000   0.0000   0.0000   0.0000   0.0000   0.0000   0.0000   0.0000
     0.0000   0.0000

          k = 0.0000 0.2391 0.2337 ( 40274 PWs)   bands (ev):

   -86.2895 -86.2877 -86.2664 -86.2661 -52.4774 -52.4771 -52.3510 -52.3490
   -52.2887 -52.2870 -52.2092 -52.2074 -52.2066 -52.2062 -52.0929 -52.0924
   -46.4133 -18.4866 -18.3940 -18.3464 -16.5786 -16.4138 -16.3834 -16.2176
   -14.5139 -14.4162 -14.3625 -14.3024 -14.2706 -14.2031 -14.0982 -14.0867
   -14.0341 -14.0221 -13.9479 -13.9118  -5.0649  -4.7908  -4.4601  -4.3311
    -2.8259  -2.7635  -2.4670  -2.3325  -2.1428  -2.0137  -1.9486  -1.8926
    -1.8247  -1.7670  -1.6884  -1.5256  -0.9584  -0.9345  -0.6300  -0.5834
    -0.4379  -0.4202  -0.3157  -0.2815  -0.1493  -0.0940   0.0785   0.1291
     0.2021   0.3518   0.3793   0.4681   0.6043   0.7298   0.7925   0.8469
     0.9636   1.0379   1.1199   1.1911   1.2836   1.3360   1.4626   1.5414
     1.5777   1.7324   1.7556   1.8189   1.9550   2.0129   2.1217   2.1879
     2.2385   2.3316   2.5053   2.6030   2.6506   2.7311   2.7958   2.8754
     2.9783   3.0250   3.1309   3.1580   3.2702   3.3197   3.5918   3.6319
     7.5400   9.1512   9.6512   9.8764  10.4399  11.0597  11.2556  11.4649
    11.5705  11.5982

     occupation numbers 
     1.0000   1.0000   1.0000   1.0000   1.0000   1.0000   1.0000   1.0000
     1.0000   1.0000   1.0000   1.0000   1.0000   1.0000   1.0000   1.0000
     1.0000   1.0000   1.0000   1.0000   1.0000   1.0000   1.0000   1.0000
     1.0000   1.0000   1.0000   1.0000   1.0000   1.0000   1.0000   1.0000
     1.0000   1.0000   1.0000   1.0000   1.0000   1.0000   1.0000   1.0000
     1.0000   1.0000   1.0000   1.0000   1.0000   1.0000   1.0000   1.0000
     1.0000   1.0000   1.0000   1.0000   1.0000   1.0000   1.0000   1.0000
     1.0000   1.0000   1.0000   1.0000   1.0000   1.0000   1.0000   1.0000
     1.0000   1.0000   1.0000   1.0000   1.0000   1.0000   1.0000   1.0000
     1.0000   1.0000   1.0000   1.0000   1.0000   1.0000   1.0000   1.0000
     1.0000   1.0000   1.0000   1.0000   1.0000   1.0000   1.0000   1.0000
     1.0000   1.0000   1.0000   1.0000   1.0000   1.0000   1.0000   1.0000
     1.0000   1.0000   1.0000   1.0000   1.0000   1.0000   1.0000   1.0000
     0.0000   0.0000   0.0000   0.0000   0.0000   0.0000   0.0000   0.0000
     0.0000   0.0000

          k = 0.0000 0.2391 0.4675 ( 40259 PWs)   bands (ev):

   -86.2895 -86.2877 -86.2664 -86.2661 -52.4774 -52.4771 -52.3510 -52.3490
   -52.2887 -52.2870 -52.2092 -52.2074 -52.2066 -52.2062 -52.0929 -52.0924
   -46.4133 -18.4866 -18.3940 -18.3467 -16.5456 -16.3972 -16.3639 -16.2255
   -14.5341 -14.4471 -14.3525 -14.3072 -14.2624 -14.2158 -14.1265 -14.0927
   -14.0376 -14.0259 -13.9636 -13.9170  -4.9999  -4.7650  -4.4609  -4.2866
    -2.7988  -2.7247  -2.4499  -2.3175  -2.1350  -2.0097  -1.9258  -1.8841
    -1.7958  -1.7639  -1.6940  -1.5312  -0.9647  -0.8956  -0.5927  -0.5482
    -0.4568  -0.4304  -0.2835  -0.2695  -0.1390  -0.1038   0.0123   0.1259
     0.1496   0.3240   0.3618   0.4828   0.5817   0.7046   0.7598   0.8545
     0.9808   1.0355   1.1079   1.1824   1.2149   1.3778   1.4641   1.5211
     1.5720   1.6612   1.7408   1.7873   1.8826   1.9247   2.1245   2.1849
     2.2374   2.3277   2.5208   2.5751   2.6436   2.7610   2.7882   2.8863
     2.9410   3.0262   3.1134   3.1925   3.2587   3.3102   3.5870   3.6422
     7.8851   9.3175   9.7198   9.9647  10.5783  10.9597  11.1264  11.3503
    11.4747  11.6323

     occupation numbers 
     1.0000   1.0000   1.0000   1.0000   1.0000   1.0000   1.0000   1.0000
     1.0000   1.0000   1.0000   1.0000   1.0000   1.0000   1.0000   1.0000
     1.0000   1.0000   1.0000   1.0000   1.0000   1.0000   1.0000   1.0000
     1.0000   1.0000   1.0000   1.0000   1.0000   1.0000   1.0000   1.0000
     1.0000   1.0000   1.0000   1.0000   1.0000   1.0000   1.0000   1.0000
     1.0000   1.0000   1.0000   1.0000   1.0000   1.0000   1.0000   1.0000
     1.0000   1.0000   1.0000   1.0000   1.0000   1.0000   1.0000   1.0000
     1.0000   1.0000   1.0000   1.0000   1.0000   1.0000   1.0000   1.0000
     1.0000   1.0000   1.0000   1.0000   1.0000   1.0000   1.0000   1.0000
     1.0000   1.0000   1.0000   1.0000   1.0000   1.0000   1.0000   1.0000
     1.0000   1.0000   1.0000   1.0000   1.0000   1.0000   1.0000   1.0000
     1.0000   1.0000   1.0000   1.0000   1.0000   1.0000   1.0000   1.0000
     1.0000   1.0000   1.0000   1.0000   1.0000   1.0000   1.0000   1.0000
     0.0000   0.0000   0.0000   0.0000   0.0000   0.0000   0.0000   0.0000
     0.0000   0.0000

          k = 0.0000 0.2391 0.7012 ( 40257 PWs)   bands (ev):

   -86.2895 -86.2877 -86.2664 -86.2661 -52.4774 -52.4771 -52.3510 -52.3490
   -52.2887 -52.2870 -52.2092 -52.2074 -52.2066 -52.2062 -52.0929 -52.0924
   -46.4133 -18.4865 -18.3939 -18.3470 -16.5038 -16.3803 -16.3373 -16.2403
   -14.5591 -14.4791 -14.3437 -14.3122 -14.2596 -14.2283 -14.1446 -14.0952
   -14.0468 -14.0328 -13.9784 -13.9317  -4.9184  -4.7303  -4.4466  -4.2715
    -2.7820  -2.6645  -2.3917  -2.3203  -2.1392  -2.0163  -1.9425  -1.8684
    -1.7484  -1.7325  -1.6725  -1.5746  -0.9710  -0.8604  -0.5488  -0.4943
    -0.4279  -0.4032  -0.3062  -0.2688  -0.0959  -0.0767  -0.0041   0.0834
     0.1994   0.2856   0.3330   0.4584   0.5480   0.6285   0.6878   0.8541
     0.8784   1.0079   1.0762   1.1943   1.2278   1.3341   1.3992   1.4502
     1.6004   1.6341   1.6570   1.7655   1.8352   1.9507   2.1369   2.1657
     2.2418   2.3626   2.4694   2.5784   2.6185   2.7801   2.8246   2.9004
     2.9451   3.0192   3.0659   3.2071   3.2504   3.3272   3.5740   3.6480
     8.3597   9.5030   9.7482  10.0891  10.4910  10.9092  11.1130  11.2177
    11.3466  11.6728

     occupation numbers 
     1.0000   1.0000   1.0000   1.0000   1.0000   1.0000   1.0000   1.0000
     1.0000   1.0000   1.0000   1.0000   1.0000   1.0000   1.0000   1.0000
     1.0000   1.0000   1.0000   1.0000   1.0000   1.0000   1.0000   1.0000
     1.0000   1.0000   1.0000   1.0000   1.0000   1.0000   1.0000   1.0000
     1.0000   1.0000   1.0000   1.0000   1.0000   1.0000   1.0000   1.0000
     1.0000   1.0000   1.0000   1.0000   1.0000   1.0000   1.0000   1.0000
     1.0000   1.0000   1.0000   1.0000   1.0000   1.0000   1.0000   1.0000
     1.0000   1.0000   1.0000   1.0000   1.0000   1.0000   1.0000   1.0000
     1.0000   1.0000   1.0000   1.0000   1.0000   1.0000   1.0000   1.0000
     1.0000   1.0000   1.0000   1.0000   1.0000   1.0000   1.0000   1.0000
     1.0000   1.0000   1.0000   1.0000   1.0000   1.0000   1.0000   1.0000
     1.0000   1.0000   1.0000   1.0000   1.0000   1.0000   1.0000   1.0000
     1.0000   1.0000   1.0000   1.0000   1.0000   1.0000   1.0000   1.0000
     0.0000   0.0000   0.0000   0.0000   0.0000   0.0000   0.0000   0.0000
     0.0000   0.0000

          k = 0.0000 0.2391 0.9349 ( 40230 PWs)   bands (ev):

   -86.2895 -86.2877 -86.2664 -86.2661 -52.4774 -52.4771 -52.3510 -52.3490
   -52.2887 -52.2870 -52.2092 -52.2074 -52.2066 -52.2062 -52.0929 -52.0924
   -46.4133 -18.4864 -18.3938 -18.3472 -16.4724 -16.3726 -16.3148 -16.2559
   -14.5765 -14.5017 -14.3334 -14.3108 -14.2647 -14.2394 -14.1522 -14.0849
   -14.0582 -14.0410 -13.9861 -13.9473  -4.8569  -4.7013  -4.4271  -4.2938
    -2.7613  -2.6251  -2.3460  -2.3188  -2.1538  -2.0200  -1.9596  -1.8770
    -1.7350  -1.6954  -1.6345  -1.6088  -0.9761  -0.8383  -0.5471  -0.4524
    -0.4128  -0.3805  -0.2954  -0.1740  -0.0683  -0.0350   0.0214   0.0643
     0.2230   0.2594   0.2784   0.4045   0.4735   0.5332   0.6621   0.8461
     0.8788   0.9390   1.0512   1.1014   1.2750   1.2970   1.3277   1.4369
     1.5469   1.6186   1.7125   1.7432   1.8045   2.0137   2.1147   2.1786
     2.2273   2.3692   2.4533   2.5536   2.6501   2.8156   2.8437   2.9098
     2.9344   2.9988   3.0409   3.1721   3.2670   3.3611   3.5630   3.6485
     8.8523   9.4150   9.8350  10.1899  10.2311  10.9298  11.1112  11.2217
    11.3043  11.6332

     occupation numbers 
     1.0000   1.0000   1.0000   1.0000   1.0000   1.0000   1.0000   1.0000
     1.0000   1.0000   1.0000   1.0000   1.0000   1.0000   1.0000   1.0000
     1.0000   1.0000   1.0000   1.0000   1.0000   1.0000   1.0000   1.0000
     1.0000   1.0000   1.0000   1.0000   1.0000   1.0000   1.0000   1.0000
     1.0000   1.0000   1.0000   1.0000   1.0000   1.0000   1.0000   1.0000
     1.0000   1.0000   1.0000   1.0000   1.0000   1.0000   1.0000   1.0000
     1.0000   1.0000   1.0000   1.0000   1.0000   1.0000   1.0000   1.0000
     1.0000   1.0000   1.0000   1.0000   1.0000   1.0000   1.0000   1.0000
     1.0000   1.0000   1.0000   1.0000   1.0000   1.0000   1.0000   1.0000
     1.0000   1.0000   1.0000   1.0000   1.0000   1.0000   1.0000   1.0000
     1.0000   1.0000   1.0000   1.0000   1.0000   1.0000   1.0000   1.0000
     1.0000   1.0000   1.0000   1.0000   1.0000   1.0000   1.0000   1.0000
     1.0000   1.0000   1.0000   1.0000   1.0000   1.0000   1.0000   1.0000
     0.0000   0.0000   0.0000   0.0000   0.0000   0.0000   0.0000   0.0000
     0.0000   0.0000

          k = 0.0000 0.4781 0.0000 ( 40251 PWs)   bands (ev):

   -86.2895 -86.2877 -86.2664 -86.2661 -52.4774 -52.4771 -52.3510 -52.3490
   -52.2887 -52.2870 -52.2092 -52.2074 -52.2066 -52.2062 -52.0929 -52.0924
   -46.4133 -18.4876 -18.3952 -18.3463 -16.5509 -16.4195 -16.3810 -16.2452
   -14.5361 -14.4036 -14.3610 -14.3390 -14.2780 -14.1926 -14.1070 -14.0554
   -14.0314 -14.0108 -13.9415 -13.9058  -5.0095  -4.7291  -4.4745  -4.3743
    -2.7807  -2.6845  -2.4291  -2.3470  -2.1711  -2.0682  -1.9496  -1.8496
    -1.8150  -1.7624  -1.6674  -1.5304  -1.0401  -0.9554  -0.7512  -0.6774
    -0.5022  -0.4201  -0.3633  -0.2664  -0.1887  -0.0457   0.1404   0.1945
     0.2666   0.3322   0.3656   0.4546   0.6374   0.7077   0.7429   0.8415
     0.9338   1.0098   1.0991   1.1264   1.2434   1.3464   1.3726   1.5769
     1.6118   1.6814   1.7717   1.8309   1.9111   2.0170   2.1221   2.2307
     2.2619   2.3267   2.5267   2.5750   2.6366   2.6976   2.7888   2.8562
     2.9892   3.0159   3.1109   3.1611   3.3774   3.4813   3.6078   3.6726
     7.8261   9.2536   9.5769   9.8742  10.2440  10.9595  11.2937  11.4663
    11.5323  11.6600

     occupation numbers 
     1.0000   1.0000   1.0000   1.0000   1.0000   1.0000   1.0000   1.0000
     1.0000   1.0000   1.0000   1.0000   1.0000   1.0000   1.0000   1.0000
     1.0000   1.0000   1.0000   1.0000   1.0000   1.0000   1.0000   1.0000
     1.0000   1.0000   1.0000   1.0000   1.0000   1.0000   1.0000   1.0000
     1.0000   1.0000   1.0000   1.0000   1.0000   1.0000   1.0000   1.0000
     1.0000   1.0000   1.0000   1.0000   1.0000   1.0000   1.0000   1.0000
     1.0000   1.0000   1.0000   1.0000   1.0000   1.0000   1.0000   1.0000
     1.0000   1.0000   1.0000   1.0000   1.0000   1.0000   1.0000   1.0000
     1.0000   1.0000   1.0000   1.0000   1.0000   1.0000   1.0000   1.0000
     1.0000   1.0000   1.0000   1.0000   1.0000   1.0000   1.0000   1.0000
     1.0000   1.0000   1.0000   1.0000   1.0000   1.0000   1.0000   1.0000
     1.0000   1.0000   1.0000   1.0000   1.0000   1.0000   1.0000   1.0000
     1.0000   1.0000   1.0000   1.0000   1.0000   1.0000   1.0000   1.0000
     0.0000   0.0000   0.0000   0.0000   0.0000   0.0000   0.0000   0.0000
     0.0000   0.0000

          k = 0.0000 0.4781 0.2337 ( 40249 PWs)   bands (ev):

   -86.2895 -86.2877 -86.2664 -86.2661 -52.4774 -52.4771 -52.3510 -52.3490
   -52.2887 -52.2870 -52.2092 -52.2074 -52.2066 -52.2062 -52.0929 -52.0924
   -46.4133 -18.4877 -18.3953 -18.3464 -16.5394 -16.4046 -16.3789 -16.2486
   -14.5409 -14.4215 -14.3582 -14.3272 -14.2891 -14.2010 -14.1090 -14.0682
   -14.0313 -14.0107 -13.9457 -13.9047  -4.9906  -4.7243  -4.4753  -4.3348
    -2.7643  -2.6707  -2.4699  -2.3027  -2.1645  -2.0694  -1.9279  -1.8657
    -1.7901  -1.7831  -1.6863  -1.5035  -1.0173  -0.9687  -0.7286  -0.6494
    -0.4911  -0.3854  -0.3612  -0.2669  -0.1965  -0.0708   0.0997   0.1251
     0.1977   0.2821   0.3567   0.4573   0.6482   0.7166   0.7750   0.8087
     0.9786   1.0120   1.0865   1.2140   1.2884   1.3314   1.4062   1.5414
     1.5694   1.6650   1.7636   1.8183   1.9010   2.0196   2.0960   2.1485
     2.2583   2.3074   2.4792   2.6167   2.6652   2.7146   2.7565   2.8434
     2.9845   3.0790   3.1018   3.1544   3.3916   3.4535   3.5956   3.6926
     7.9238   9.3071   9.6322   9.9071  10.3541  10.8872  11.3273  11.4309
    11.5504  11.6590

     occupation numbers 
     1.0000   1.0000   1.0000   1.0000   1.0000   1.0000   1.0000   1.0000
     1.0000   1.0000   1.0000   1.0000   1.0000   1.0000   1.0000   1.0000
     1.0000   1.0000   1.0000   1.0000   1.0000   1.0000   1.0000   1.0000
     1.0000   1.0000   1.0000   1.0000   1.0000   1.0000   1.0000   1.0000
     1.0000   1.0000   1.0000   1.0000   1.0000   1.0000   1.0000   1.0000
     1.0000   1.0000   1.0000   1.0000   1.0000   1.0000   1.0000   1.0000
     1.0000   1.0000   1.0000   1.0000   1.0000   1.0000   1.0000   1.0000
     1.0000   1.0000   1.0000   1.0000   1.0000   1.0000   1.0000   1.0000
     1.0000   1.0000   1.0000   1.0000   1.0000   1.0000   1.0000   1.0000
     1.0000   1.0000   1.0000   1.0000   1.0000   1.0000   1.0000   1.0000
     1.0000   1.0000   1.0000   1.0000   1.0000   1.0000   1.0000   1.0000
     1.0000   1.0000   1.0000   1.0000   1.0000   1.0000   1.0000   1.0000
     1.0000   1.0000   1.0000   1.0000   1.0000   1.0000   1.0000   1.0000
     0.0000   0.0000   0.0000   0.0000   0.0000   0.0000   0.0000   0.0000
     0.0000   0.0000

          k = 0.0000 0.4781 0.4675 ( 40239 PWs)   bands (ev):

   -86.2895 -86.2877 -86.2664 -86.2661 -52.4774 -52.4771 -52.3510 -52.3490
   -52.2887 -52.2870 -52.2092 -52.2074 -52.2066 -52.2062 -52.0929 -52.0924
   -46.4133 -18.4876 -18.3952 -18.3467 -16.5088 -16.3801 -16.3664 -16.2541
   -14.5561 -14.4440 -14.3655 -14.3124 -14.3004 -14.2181 -14.1305 -14.0734
   -14.0364 -14.0135 -13.9578 -13.9140  -4.9288  -4.7004  -4.4621  -4.2840
    -2.7306  -2.6620  -2.4442  -2.2919  -2.1573  -2.0703  -1.8979  -1.8533
    -1.7905  -1.7490  -1.6920  -1.5094  -1.0372  -0.9438  -0.6818  -0.6077
    -0.4892  -0.4029  -0.3159  -0.2359  -0.1605  -0.1107   0.0159   0.0532
     0.1601   0.2568   0.3232   0.4665   0.5861   0.6788   0.7681   0.8401
     1.0091   1.0798   1.1105   1.1803   1.2771   1.3054   1.4480   1.4805
     1.5625   1.6520   1.7249   1.7550   1.8835   1.9097   2.0247   2.1167
[...]
     atom    3 type  1   force =    -0.05846538   -0.16582470    0.12640126
     atom    4 type  1   force =    -0.07270302    0.10039381    0.19197904
     atom    5 type  1   force =     0.05846538    0.16582470   -0.12640126
     atom    6 type  4   force =    -0.00979582    0.05349706    0.03491569
     atom    7 type  4   force =    -0.03284294    0.01674209   -0.06855555
     atom    8 type  4   force =     0.00979582   -0.05349706   -0.03491569
     atom    9 type  4   force =     0.03284294   -0.01674209    0.06855555
     atom   10 type  3   force =    -0.52001702   -0.29019268   -1.06365474
     atom   11 type  3   force =    -0.06447368    0.24194826   -1.49786056
     atom   12 type  3   force =     0.52001702    0.29019268    1.06365474
     atom   13 type  3   force =     0.06447368   -0.24194826    1.49786056
     atom   14 type  3   force =     1.41635650   -0.23871465   -0.66896979
     atom   15 type  3   force =    -1.37112153    0.27675695   -0.17541621
     atom   16 type  3   force =    -1.41635650    0.23871465    0.66896979
     atom   17 type  3   force =     1.37112153   -0.27675695    0.17541621
     atom   18 type  3   force =    -0.03806504   -1.40187612    0.81967218
     atom   19 type  3   force =     0.63619261    0.68156894    0.92304977
     atom   20 type  3   force =     0.03069884   -1.65140227   -0.98540069
     atom   21 type  3   force =    -0.07468246    1.02098285   -0.57292490
     atom   22 type  3   force =     0.03806504    1.40187612   -0.81967218
     atom   23 type  3   force =    -0.63619261   -0.68156894   -0.92304977
     atom   24 type  3   force =    -0.03069884    1.65140227    0.98540069
     atom   25 type  3   force =     0.07468246   -1.02098285    0.57292490
     The ionic contribution  to forces
     atom    1 type  2   force =     0.00053080    0.00042271    0.00017758
     atom    2 type  1   force =     8.43845612    5.07655892   -1.89704289
     atom    3 type  1   force =     4.38855199   -9.16310171   -2.53991431
     atom    4 type  1   force =    -8.43884066   -5.07650677    1.89690211
     atom    5 type  1   force =    -4.38894175    9.16278445    2.53998438
     atom    6 type  4   force =    -1.51291907    2.02380651   -1.99815292
     atom    7 type  4   force =     3.13565305   -0.90072124    1.10962276
     atom    8 type  4   force =     1.51298102   -2.02379044    1.99799567
     atom    9 type  4   force =    -3.13576172    0.90070866   -1.10951591
     atom   10 type  3   force =    -0.33398196    6.31349704    0.07974746
     atom   11 type  3   force =     6.88867330   -3.79127081    2.15808711
     atom   12 type  3   force =     0.33426189   -6.31328730   -0.07939405
     atom   13 type  3   force =    -6.88871231    3.79123001   -2.15825663
     atom   14 type  3   force =     0.31529835    1.39061996    7.12512549
     atom   15 type  3   force =     0.31865731   -2.94208503    4.71769896
     atom   16 type  3   force =    -0.31547522   -1.39061653   -7.12509338
     atom   17 type  3   force =    -0.31824142    2.94176991   -4.71804287
     atom   18 type  3   force =    -5.56351289    8.09114966    0.51778396
     atom   19 type  3   force =     2.28725983   -1.23297234   -3.22310745
     atom   20 type  3   force =     4.03097228    6.02269923    8.32855168
     atom   21 type  3   force =    -8.55213003   -0.73495726   -0.33418446
     atom   22 type  3   force =     5.56358410   -8.09116267   -0.51774530
     atom   23 type  3   force =    -2.28746853    1.23293282    3.22310208
     atom   24 type  3   force =    -4.03087822   -6.02270133   -8.32853521
     atom   25 type  3   force =     8.55198373    0.73499354    0.33420615
     The local contribution  to forces
     atom    1 type  2   force =     0.00342082    0.00008603   -0.00254620
     atom    2 type  1   force =    -8.52597740   -4.97903623    2.09581078
     atom    3 type  1   force =    -4.33972882    9.33887388    2.39962282
     atom    4 type  1   force =     8.50277187    4.96790970   -2.10480526
     atom    5 type  1   force =     4.31638460   -9.35121141   -2.41026891
     atom    6 type  4   force =     1.52690183   -2.07893405    1.96648932
     atom    7 type  4   force =    -3.10283983    0.88432495   -1.03840896
     atom    8 type  4   force =    -1.52698619    2.07870420   -1.96672157
     atom    9 type  4   force =     3.10298997   -0.88450579    1.03856552
     atom   10 type  3   force =     0.82649479   -6.04452779    0.93188311
     atom   11 type  3   force =    -6.82436523    3.55649199   -0.73201968
     atom   12 type  3   force =    -0.83077037    6.04206690   -0.93236224
     atom   13 type  3   force =     6.81880241   -3.55944269    0.72895044
     atom   14 type  3   force =    -1.66052099   -1.16368694   -6.48518590
     atom   15 type  3   force =     0.97806497    2.67424602   -4.54422620
     atom   16 type  3   force =     1.65651122    1.16093632    6.48307382
     atom   17 type  3   force =    -0.98179218   -2.67679958    4.54182126
     atom   18 type  3   force =     5.59405825   -6.75624869   -1.30279984
     atom   19 type  3   force =    -2.89655859    0.58565562    2.34005008
     atom   20 type  3   force =    -4.06387835   -4.45136293   -7.39105823
     atom   21 type  3   force =     8.62435764   -0.23773807    0.88743268
     atom   22 type  3   force =    -5.59929636    6.75352833    1.29966337
     atom   23 type  3   force =     2.89117840   -0.58773986   -2.34248116
     atom   24 type  3   force =     4.05868273    4.44910136    7.38945522
     atom   25 type  3   force =    -8.62953640    0.23545691   -0.88932652
     The core correction contribution to forces
     atom    1 type  2   force =     0.00000000    0.00000000    0.00000000
     atom    2 type  1   force =    -0.00155665    0.00081085    0.00087277
     atom    3 type  1   force =     0.00164844   -0.00023737    0.00068882
     atom    4 type  1   force =     0.00233170   -0.00041059   -0.00054882
     atom    5 type  1   force =    -0.00085831    0.00062090   -0.00031739
     atom    6 type  4   force =     0.00117228   -0.00314734   -0.00183163
     atom    7 type  4   force =     0.00232795   -0.00105774    0.00449369
     atom    8 type  4   force =    -0.00115739    0.00315503    0.00184090
     atom    9 type  4   force =    -0.00231069    0.00106369   -0.00448856
     atom   10 type  3   force =     0.00460027    0.00275578    0.00998005
     atom   11 type  3   force =     0.00133715   -0.00259729    0.01408687
     atom   12 type  3   force =    -0.00460511   -0.00275800   -0.00998506
     atom   13 type  3   force =    -0.00133967    0.00259547   -0.01408962
     atom   14 type  3   force =    -0.01313618    0.00233904    0.00695589
     atom   15 type  3   force =     0.01254447   -0.00279028    0.00211261
     atom   16 type  3   force =     0.01312678   -0.00233979   -0.00695770
     atom   17 type  3   force =    -0.01255150    0.00278949   -0.00211280
     atom   18 type  3   force =    -0.00016308    0.01368347   -0.00757649
     atom   19 type  3   force =    -0.00602028   -0.00614786   -0.00896195
     atom   20 type  3   force =    -0.00010483    0.01551586    0.00981443
     atom   21 type  3   force =     0.00055878   -0.00958277    0.00559531
     atom   22 type  3   force =     0.00015869   -0.01368630    0.00757754
     atom   23 type  3   force =     0.00601375    0.00614222    0.00895587
     atom   24 type  3   force =     0.00010125   -0.01551762   -0.00981778
     atom   25 type  3   force =    -0.00056275    0.00958167   -0.00559894
     The Hubbard contrib.    to forces
     atom    1 type  2   force =     0.00000000    0.00000000    0.00000000
     atom    2 type  1   force =     0.00000000    0.00000000    0.00000000
     atom    3 type  1   force =     0.00000000    0.00000000    0.00000000
     atom    4 type  1   force =     0.00000000    0.00000000    0.00000000
     atom    5 type  1   force =     0.00000000    0.00000000    0.00000000
     atom    6 type  4   force =     0.00000000    0.00000000    0.00000000
     atom    7 type  4   force =     0.00000000    0.00000000    0.00000000
     atom    8 type  4   force =     0.00000000    0.00000000    0.00000000
     atom    9 type  4   force =     0.00000000    0.00000000    0.00000000
     atom   10 type  3   force =     0.00000000    0.00000000    0.00000000
     atom   11 type  3   force =     0.00000000    0.00000000    0.00000000
     atom   12 type  3   force =     0.00000000    0.00000000    0.00000000
     atom   13 type  3   force =     0.00000000    0.00000000    0.00000000
     atom   14 type  3   force =     0.00000000    0.00000000    0.00000000
     atom   15 type  3   force =     0.00000000    0.00000000    0.00000000
     atom   16 type  3   force =     0.00000000    0.00000000    0.00000000
     atom   17 type  3   force =     0.00000000    0.00000000    0.00000000
     atom   18 type  3   force =     0.00000000    0.00000000    0.00000000
     atom   19 type  3   force =     0.00000000    0.00000000    0.00000000
     atom   20 type  3   force =     0.00000000    0.00000000    0.00000000
     atom   21 type  3   force =     0.00000000    0.00000000    0.00000000
     atom   22 type  3   force =     0.00000000    0.00000000    0.00000000
     atom   23 type  3   force =     0.00000000    0.00000000    0.00000000
     atom   24 type  3   force =     0.00000000    0.00000000    0.00000000
     atom   25 type  3   force =     0.00000000    0.00000000    0.00000000
     The SCF correction term to forces
     atom    1 type  2   force =     0.00000000    0.00000000   -0.00000000
     atom    2 type  1   force =     0.00000067   -0.00000075   -0.00000191
     atom    3 type  1   force =     0.00000049   -0.00000192   -0.00000024
     atom    4 type  1   force =    -0.00000068    0.00000075    0.00000191
     atom    5 type  1   force =    -0.00000050    0.00000191    0.00000023
     atom    6 type  4   force =    -0.00000088   -0.00000063    0.00000073
     atom    7 type  4   force =    -0.00000105    0.00000056   -0.00000035
     atom    8 type  4   force =     0.00000088    0.00000063   -0.00000073
     atom    9 type  4   force =     0.00000105   -0.00000056    0.00000035
     atom   10 type  3   force =    -0.00000044   -0.00000228   -0.00000122
     atom   11 type  3   force =    -0.00000174    0.00000087    0.00000209
     atom   12 type  3   force =     0.00000044    0.00000228    0.00000122
     atom   13 type  3   force =     0.00000174   -0.00000088   -0.00000209
     atom   14 type  3   force =     0.00000212   -0.00000059    0.00000121
     atom   15 type  3   force =     0.00000265   -0.00000079   -0.00000120
     atom   16 type  3   force =    -0.00000212    0.00000059   -0.00000121
     atom   17 type  3   force =    -0.00000265    0.00000078    0.00000120
     atom   18 type  3   force =    -0.00000178    0.00000119    0.00000096
     atom   19 type  3   force =    -0.00000099    0.00000405   -0.00000166
     atom   20 type  3   force =    -0.00000106    0.00000091   -0.00000198
     atom   21 type  3   force =     0.00000058    0.00000333    0.00000243
     atom   22 type  3   force =     0.00000178   -0.00000119   -0.00000096
     atom   23 type  3   force =     0.00000099   -0.00000405    0.00000166
     atom   24 type  3   force =     0.00000106   -0.00000091    0.00000198
     atom   25 type  3   force =    -0.00000058   -0.00000333   -0.00000243

     Total force =     0.233596     Total SCF correction =     0.000014


     Computing stress (Cartesian axis) and pressure


     negative rho (up, down):  0.000E+00 8.216E-04
          total   stress  (Ry/bohr**3)                   (kbar)     P=     -109.72
  -0.00108606   0.00014247  -0.00006436         -159.77       20.96       -9.47
   0.00014247  -0.00050813   0.00001901           20.96      -74.75        2.80
  -0.00006436   0.00001901  -0.00064335           -9.47        2.80      -94.64

     kinetic stress (kbar)  23708.50     89.87    -49.38
                               89.87  23847.18      1.58
                              -49.38      1.58  23868.30

     local   stress (kbar)  -8376.74   3358.17  -7233.36
                             3358.17 -13757.03  -1335.57
                            -7233.36  -1335.57  -5921.08

     nonloc. stress (kbar)  -6018.58      3.20     -7.55
                                3.20  -5997.56     -7.42
                               -7.55     -7.42  -6008.50

     hartree stress (kbar)  13432.21  -1264.91   3083.47
                            -1264.91  16150.05    589.56
                             3083.47    589.56  12803.68

     exc-cor stress (kbar)  -2516.78     -2.88      2.95
                               -2.88  -2519.57     -0.05
                                2.95     -0.05  -2520.11

     corecor stress (kbar)  -2820.47      0.12     -0.21
                                0.12  -2821.37      0.82
                               -0.21      0.82  -2820.77

     ewald   stress (kbar) -17567.90  -2162.61   4194.61
                            -2162.61 -14976.44    753.87
                             4194.61    753.87 -19496.17

     hubbard stress (kbar)      0.00      0.00      0.00
                                0.00      0.00      0.00
                                0.00      0.00      0.00

     DFT-D   stress (kbar)      0.00      0.00      0.00
                                0.00      0.00      0.00
                                0.00      0.00      0.00

     XDM     stress (kbar)      0.00      0.00      0.00
                                0.00      0.00      0.00
                                0.00      0.00      0.00

     dft-nl  stress (kbar)      0.00      0.00      0.00
                                0.00      0.00      0.00
                                0.00      0.00      0.00

     TS-vdW  stress (kbar)      0.00      0.00      0.00
                                0.00      0.00      0.00
                                0.00      0.00      0.00



     init_run     :   1158.02s CPU   1340.11s WALL (       1 calls)
     electrons    :  73800.04s CPU  84794.62s WALL (       1 calls)
     forces       :    150.55s CPU    171.02s WALL (       1 calls)
     stress       :    714.67s CPU    814.04s WALL (       1 calls)

     Called by init_run:
     wfcinit      :   1140.00s CPU   1319.53s WALL (       1 calls)
     wfcinit:atom :      0.62s CPU      0.79s WALL (     316 calls)
     wfcinit:wfcr :   1134.72s CPU   1313.29s WALL (     316 calls)
     potinit      :      7.94s CPU      9.16s WALL (       1 calls)
     hinit0       :      6.14s CPU      6.93s WALL (       1 calls)

     Called by electrons:
     c_bands      :  62084.07s CPU  71346.75s WALL (      26 calls)
     sum_band     :  11521.27s CPU  13223.63s WALL (      26 calls)
     v_of_rho     :     71.33s CPU     81.12s WALL (      27 calls)
     v_h          :      6.74s CPU      7.57s WALL (      27 calls)
     v_xc         :     69.66s CPU     79.45s WALL (      29 calls)
     newd         :     47.88s CPU     55.26s WALL (      27 calls)
     PAW_pot      :     16.22s CPU     18.25s WALL (      27 calls)
     mix_rho      :     49.56s CPU     57.99s WALL (      26 calls)

     Called by c_bands:
     init_us_2    :     49.95s CPU     54.28s WALL (   17380 calls)
     cegterg      :  61442.09s CPU  70569.47s WALL (    8216 calls)

     Called by sum_band:
     sum_band:wei :      0.47s CPU      0.52s WALL (      26 calls)
     sum_band:loo :  11433.66s CPU  13120.61s WALL (      26 calls)
     sum_band:buf :     12.00s CPU     12.54s WALL (    8216 calls)
     sum_band:ini :     19.61s CPU     20.38s WALL (    8216 calls)
     sum_band:cal :    797.12s CPU    922.61s WALL (    8216 calls)
     sum_band:bec :      1.88s CPU      1.88s WALL (    8216 calls)
     addusdens    :     62.84s CPU     74.57s WALL (      26 calls)
     addusd:skk   :      0.59s CPU      0.69s WALL (      78 calls)
     addusd:dgemm :      4.75s CPU      7.50s WALL (     156 calls)
     addusd:qvan2 :     56.76s CPU     65.42s WALL (     156 calls)

     Called by *egterg:
     cdiaghg      :   1117.31s CPU   1309.66s WALL (   33721 calls)
     cegterg:over :   3863.57s CPU   4430.70s WALL (   25505 calls)
     cegterg:upda :    160.37s CPU    177.66s WALL (   25505 calls)
     cegterg:last :    355.59s CPU    405.48s WALL (   15931 calls)
     h_psi        :  53853.36s CPU  61876.87s WALL (   34037 calls)
     s_psi        :    308.96s CPU    361.22s WALL (   34037 calls)
     g_psi        :     17.36s CPU     21.78s WALL (   25505 calls)

     Called by h_psi:
     h_psi:calbec :   2769.23s CPU   3206.87s WALL (   34037 calls)
     vloc_psi     :  50721.84s CPU  58251.87s WALL (   34037 calls)
     add_vuspsi   :    326.81s CPU    379.83s WALL (   34037 calls)

     General routines
     calbec       :   3838.86s CPU   4436.74s WALL (   43833 calls)
     fft          :    105.92s CPU    120.78s WALL (     713 calls)
     ffts         :      2.92s CPU      3.20s WALL (     106 calls)
     fftw         :  60687.71s CPU  69768.56s WALL ( 5434186 calls)
     interpolate  :     10.03s CPU     11.11s WALL (      54 calls)

     Parallel routines
     fft_scatt_xy :    269.08s CPU    271.98s WALL ( 5435005 calls)
     fft_scatt_yz :  59474.39s CPU  68553.86s WALL ( 5435005 calls)

     PAW routines
     PAW_pot      :     16.22s CPU     18.25s WALL (      27 calls)
     PAW_symme    :      4.17s CPU      4.85s WALL (      53 calls)

     PWSCF        :     21h 4m CPU   1d 0h12m WALL


   This run was terminated on:  22:36:30  30Jan2023            

=------------------------------------------------------------------------------=
   JOB DONE.
=------------------------------------------------------------------------------=
Note: The following floating-point exceptions are signalling: IEEE_DENORMAL
Note: The following floating-point exceptions are signalling: IEEE_DENORMAL
Note: The following floating-point exceptions are signalling: IEEE_DENORMAL
Note: The following floating-point exceptions are signalling: IEEE_DENORMAL
Note: The following floating-point exceptions are signalling: IEEE_DENORMAL
Note: The following floating-point exceptions are signalling: IEEE_DENORMAL
Note: The following floating-point exceptions are signalling: IEEE_DENORMAL
Note: The following floating-point exceptions are signalling: IEEE_INVALID_FLAG IEEE_DENORMAL
Note: The following floating-point exceptions are signalling: IEEE_INVALID_FLAG IEEE_DENORMAL
Note: The following floating-point exceptions are signalling: IEEE_DENORMAL
Note: The following floating-point exceptions are signalling: IEEE_INVALID_FLAG IEEE_DENORMAL
Note: The following floating-point exceptions are signalling: IEEE_DENORMAL
Note: The following floating-point exceptions are signalling: IEEE_DENORMAL
Note: The following floating-point exceptions are signalling: IEEE_INVALID_FLAG IEEE_DENORMAL
Note: The following floating-point exceptions are signalling: IEEE_DENORMAL
Note: The following floating-point exceptions are signalling: IEEE_DENORMAL
Note: The following floating-point exceptions are signalling: IEEE_DENORMAL
Note: The following floating-point exceptions are signalling: IEEE_DENORMAL
Note: The following floating-point exceptions are signalling: IEEE_INVALID_FLAG IEEE_DENORMAL
Note: The following floating-point exceptions are signalling: IEEE_DENORMAL
Note: The following floating-point exceptions are signalling: IEEE_DENORMAL
Note: The following floating-point exceptions are signalling: IEEE_INVALID_FLAG IEEE_DENORMAL
Note: The following floating-point exceptions are signalling: IEEE_DENORMAL
Note: The following floating-point exceptions are signalling: IEEE_DENORMAL
Note: The following floating-point exceptions are signalling: IEEE_DENORMAL
Note: The following floating-point exceptions are signalling: IEEE_DENORMAL
Note: The following floating-point exceptions are signalling: IEEE_UNDERFLOW_FLAG IEEE_DENORMAL
