
     Program PWSCF v.6.7MaX starts on 27Jan2023 at 11:53:36 

     This program is part of the open-source Quantum ESPRESSO suite
     for quantum simulation of materials; please cite
         "P. Giannozzi et al., J. Phys.:Condens. Matter 21 395502 (2009);
         "P. Giannozzi et al., J. Phys.:Condens. Matter 29 465901 (2017);
          URL http://www.quantum-espresso.org", 
     in publications or presentations arising from this work. More details at
     http://www.quantum-espresso.org/quote

     Parallel version (MPI), running on    32 processors

     MPI processes distributed on     2 nodes
     R & G space division:  proc/nbgrp/npool/nimage =      32
     Reading input from scale_2dab-03.in

     Current dimensions of program PWSCF are:
     Max number of different atomic species (ntypx) = 10
     Max number of k-points (npk) =  40000
     Max angular momentum in pseudopotentials (lmaxx) =  3
     Message from routine read_pp_mesh:
     mesh size missing, using the one in header
     file Fe.pbe-spn-kjpaw_psl.0.2.1.UPF: wavefunction(s)  3D renormalized
     file O.pbe-n-kjpaw_psl.0.1.UPF: wavefunction(s)  2P renormalized

     Subspace diagonalization in iterative solution of the eigenvalue problem:
     a serial algorithm will be used

     Message from routine setup:
     using ibrav=0 with symmetry is DISCOURAGED, use correct ibrav instead

     Parallelization info
     --------------------
     sticks:   dense  smooth     PW     G-vecs:    dense   smooth      PW
     Min         641     237     64                41821     9427    1324
     Max         642     238     65                41824     9430    1326
     Sum       20521    7599   2049              1338317   301689   42399



     bravais-lattice index     =            0
     lattice parameter (alat)  =      19.9928  a.u.
     unit-cell volume          =    2232.9698 (a.u.)^3
     number of atoms/cell      =           25
     number of atomic types    =            4
     number of electrons       =       189.00
     number of Kohn-Sham states=          114
     kinetic-energy cutoff     =     100.0000  Ry
     charge density cutoff     =    1080.0000  Ry
     scf convergence threshold =      2.0E-10
     mixing beta               =       0.4000
     number of iterations used =            8  plain     mixing
     Exchange-correlation= PBE
                           (   1   4   3   4   0   0   0)

     celldm(1)=  19.992808  celldm(2)=   0.000000  celldm(3)=   0.000000
     celldm(4)=   0.000000  celldm(5)=   0.000000  celldm(6)=   0.000000

     crystal axes: (cart. coord. in units of alat)
               a(1) = (   1.000000   0.000000   0.000000 )  
               a(2) = (   0.000000   0.597590   0.000000 )  
               a(3) = (   0.000000   0.000000   0.467582 )  

     reciprocal axes: (cart. coord. in units 2 pi/alat)
               b(1) = (  1.000000  0.000000  0.000000 )  
               b(2) = (  0.000000  1.673388  0.000000 )  
               b(3) = (  0.000000  0.000000  2.138660 )  


     PseudoPot. # 1 for Fe read from file:
     /opt/QEpot/SSSP_precision_pseudos/Fe.pbe-spn-kjpaw_psl.0.2.1.UPF
     MD5 check sum: e86618425769142926afa95317d90200
     Pseudo is Projector augmented-wave + core cor, Zval = 16.0
     Generated using "atomic" code by A. Dal Corso  v.5.0.99 svn rev. 10869
     Shape of augmentation charge: PSQ
     Using radial grid of 1191 points,  6 beta functions with: 
                l(1) =   0
                l(2) =   0
                l(3) =   1
                l(4) =   1
                l(5) =   2
                l(6) =   2
     Q(r) pseudized with 0 coefficients 


     PseudoPot. # 2 for Na read from file:
     /opt/QEpot/SSSP_precision_pseudos/Na_ONCV_PBE-1.0.oncvpsp.upf
     MD5 check sum: 24a298df0a6742ae313db96548fdb2a4
     Pseudo is Norm-conserving, Zval =  9.0
     Generated using ONCVPSP code by D. R. Hamann
     Using radial grid of 1992 points,  4 beta functions with: 
                l(1) =   0
                l(2) =   0
                l(3) =   1
                l(4) =   1

     PseudoPot. # 3 for O  read from file:
     /opt/QEpot/SSSP_precision_pseudos/O.pbe-n-kjpaw_psl.0.1.UPF
     MD5 check sum: 0234752ac141de4415c5fc33072bef88
     Pseudo is Projector augmented-wave + core cor, Zval =  6.0
     Generated using "atomic" code by A. Dal Corso  v.5.0.99 svn rev. 10869
     Shape of augmentation charge: BESSEL
     Using radial grid of 1095 points,  4 beta functions with: 
                l(1) =   0
                l(2) =   0
                l(3) =   1
                l(4) =   1
     Q(r) pseudized with 0 coefficients 


     PseudoPot. # 4 for P  read from file:
     /opt/QEpot/SSSP_precision_pseudos/P.pbe-n-rrkjus_psl.1.0.0.UPF
     MD5 check sum: 8b930f418f0a4573dca56cd030ffe088
     Pseudo is Ultrasoft + core correction, Zval =  5.0
     Generated using "atomic" code by A. Dal Corso  v.5.1
     Using radial grid of 1147 points,  6 beta functions with: 
                l(1) =   0
                l(2) =   0
                l(3) =   1
                l(4) =   1
                l(5) =   2
                l(6) =   2
     Q(r) pseudized with 0 coefficients 


     atomic species   valence    mass     pseudopotential
        Fe            16.00    55.84500     Fe( 1.00)
        Na             9.00    22.98977     Na( 1.00)
        O              6.00    15.99940     O ( 1.00)
        P              5.00    30.97376     P ( 1.00)

     Starting magnetic structure 
     atomic species   magnetization
        Fe           0.312
        Na           0.000
        O            0.000
        P            0.000

      2 Sym. Ops., with inversion, found


                                    s                        frac. trans.

      isym =  1     identity                                     

 cryst.   s( 1) = (     1          0          0      )
                  (     0          1          0      )
                  (     0          0          1      )

 cart.    s( 1) = (  1.0000000  0.0000000  0.0000000 )
                  (  0.0000000  1.0000000  0.0000000 )
                  (  0.0000000  0.0000000  1.0000000 )


      isym =  2     inversion                                    

 cryst.   s( 2) = (    -1          0          0      )
                  (     0         -1          0      )
                  (     0          0         -1      )

 cart.    s( 2) = ( -1.0000000  0.0000000  0.0000000 )
                  (  0.0000000 -1.0000000  0.0000000 )
                  (  0.0000000  0.0000000 -1.0000000 )


   Cartesian axes

     site n.     atom                  positions (alat units)
         1           Na  tau(   1) = (   0.9999980   0.0000000   0.2337926  )
         2           Fe  tau(   2) = (   0.2996860   0.4621103   0.3985780  )
         3           Fe  tau(   3) = (   0.2274400   0.2026356   0.2383025  )
         4           Fe  tau(   4) = (   0.7003200   0.1354826   0.0690068  )
         5           Fe  tau(   5) = (   0.7725660   0.3949573   0.2292828  )
         6           P   tau(   6) = (   0.0937970   0.3904700   0.1249184  )
         7           P   tau(   7) = (   0.3977930   0.1502502   0.4422652  )
         8           P   tau(   8) = (   0.9062090   0.2071229   0.3426687  )
         9           P   tau(   9) = (   0.6022130   0.4473427   0.0253191  )
        10           O   tau(  10) = (   0.1764850   0.4101953   0.2499518  )
        11           O   tau(  11) = (   0.3589780   0.1499030   0.1146690  )
        12           O   tau(  12) = (   0.8235200   0.1873976   0.2176320  )
        13           O   tau(  13) = (   0.6410280   0.4476899   0.3529167  )
        14           O   tau(  14) = (   0.4562740   0.4640531   0.0408148  )
        15           O   tau(  15) = (   0.0496550   0.1754697   0.3213194  )
        16           O   tau(  16) = (   0.5437320   0.1335398   0.4267705  )
        17           O   tau(  17) = (   0.9503500   0.4221232   0.1462654  )
        18           O   tau(  18) = (   0.1479210   0.4915428   0.0303110  )
        19           O   tau(  19) = (   0.3206550   0.0491548   0.3593310  )
        20           O   tau(  20) = (   0.8792370   0.3474352   0.3799538  )
        21           O   tau(  21) = (   0.6516400   0.3219271   0.0973675  )
        22           O   tau(  22) = (   0.8520850   0.1060501   0.4372742  )
        23           O   tau(  23) = (   0.6793510   0.5484382   0.1082542  )
        24           O   tau(  24) = (   0.1207690   0.2501571   0.0876310  )
        25           O   tau(  25) = (   0.3483660   0.2756658   0.3702178  )

   Crystallographic axes

     site n.     atom                  positions (cryst. coord.)
         1           Na  tau(   1) = (  0.9999980  0.0000000  0.5000030  )
         2           Fe  tau(   2) = (  0.2996860  0.7732900  0.8524230  )
         3           Fe  tau(   3) = (  0.2274400  0.3390880  0.5096480  )
         4           Fe  tau(   4) = (  0.7003200  0.2267150  0.1475820  )
         5           Fe  tau(   5) = (  0.7725660  0.6609170  0.4903580  )
         6           P   tau(   6) = (  0.0937970  0.6534080  0.2671580  )
         7           P   tau(   7) = (  0.3977930  0.2514270  0.9458550  )
         8           P   tau(   8) = (  0.9062090  0.3465970  0.7328520  )
         9           P   tau(   9) = (  0.6022130  0.7485780  0.0541490  )
        10           O   tau(  10) = (  0.1764850  0.6864160  0.5345620  )
        11           O   tau(  11) = (  0.3589780  0.2508460  0.2452380  )
        12           O   tau(  12) = (  0.8235200  0.3135890  0.4654410  )
        13           O   tau(  13) = (  0.6410280  0.7491590  0.7547690  )
        14           O   tau(  14) = (  0.4562740  0.7765410  0.0872890  )
        15           O   tau(  15) = (  0.0496550  0.2936290  0.6871930  )
        16           O   tau(  16) = (  0.5437320  0.2234640  0.9127170  )
        17           O   tau(  17) = (  0.9503500  0.7063760  0.3128120  )
        18           O   tau(  18) = (  0.1479210  0.8225420  0.0648250  )
        19           O   tau(  19) = (  0.3206550  0.0822550  0.7684870  )
        20           O   tau(  20) = (  0.8792370  0.5813940  0.8125920  )
        21           O   tau(  21) = (  0.6516400  0.5387090  0.2082360  )
        22           O   tau(  22) = (  0.8520850  0.1774630  0.9351810  )
        23           O   tau(  23) = (  0.6793510  0.9177500  0.2315190  )
        24           O   tau(  24) = (  0.1207690  0.4186100  0.1874130  )
        25           O   tau(  25) = (  0.3483660  0.4612960  0.7917700  )

     number of k points=   158  Marzari-Vanderbilt smearing, width (Ry)=  0.0073
                       cart. coord. in units 2pi/alat
        k(    1) = (   0.0000000   0.0000000   0.0000000), wk =   0.0031746
        k(    2) = (   0.0000000   0.0000000   0.2376289), wk =   0.0063492
        k(    3) = (   0.0000000   0.0000000   0.4752578), wk =   0.0063492
        k(    4) = (   0.0000000   0.0000000   0.7128867), wk =   0.0063492
        k(    5) = (   0.0000000   0.0000000   0.9505157), wk =   0.0063492
        k(    6) = (   0.0000000   0.2390555   0.0000000), wk =   0.0063492
        k(    7) = (   0.0000000   0.2390555   0.2376289), wk =   0.0063492
        k(    8) = (   0.0000000   0.2390555   0.4752578), wk =   0.0063492
        k(    9) = (   0.0000000   0.2390555   0.7128867), wk =   0.0063492
        k(   10) = (   0.0000000   0.2390555   0.9505157), wk =   0.0063492
        k(   11) = (   0.0000000   0.4781110   0.0000000), wk =   0.0063492
        k(   12) = (   0.0000000   0.4781110   0.2376289), wk =   0.0063492
        k(   13) = (   0.0000000   0.4781110   0.4752578), wk =   0.0063492
        k(   14) = (   0.0000000   0.4781110   0.7128867), wk =   0.0063492
        k(   15) = (   0.0000000   0.4781110   0.9505157), wk =   0.0063492
        k(   16) = (   0.0000000   0.7171664   0.0000000), wk =   0.0063492
        k(   17) = (   0.0000000   0.7171664   0.2376289), wk =   0.0063492
        k(   18) = (   0.0000000   0.7171664   0.4752578), wk =   0.0063492
        k(   19) = (   0.0000000   0.7171664   0.7128867), wk =   0.0063492
        k(   20) = (   0.0000000   0.7171664   0.9505157), wk =   0.0063492
        k(   21) = (   0.2000000   0.0000000   0.0000000), wk =   0.0063492
        k(   22) = (   0.2000000   0.0000000   0.2376289), wk =   0.0063492
        k(   23) = (   0.2000000   0.0000000   0.4752578), wk =   0.0063492
        k(   24) = (   0.2000000   0.0000000   0.7128867), wk =   0.0063492
        k(   25) = (   0.2000000   0.0000000   0.9505157), wk =   0.0063492
        k(   26) = (   0.2000000   0.2390555   0.0000000), wk =   0.0063492
        k(   27) = (   0.2000000   0.2390555   0.2376289), wk =   0.0063492
        k(   28) = (   0.2000000   0.2390555   0.4752578), wk =   0.0063492
        k(   29) = (   0.2000000   0.2390555   0.7128867), wk =   0.0063492
        k(   30) = (   0.2000000   0.2390555   0.9505157), wk =   0.0063492
        k(   31) = (   0.2000000   0.4781110   0.0000000), wk =   0.0063492
        k(   32) = (   0.2000000   0.4781110   0.2376289), wk =   0.0063492
        k(   33) = (   0.2000000   0.4781110   0.4752578), wk =   0.0063492
        k(   34) = (   0.2000000   0.4781110   0.7128867), wk =   0.0063492
        k(   35) = (   0.2000000   0.4781110   0.9505157), wk =   0.0063492
        k(   36) = (   0.2000000   0.7171664   0.0000000), wk =   0.0063492
        k(   37) = (   0.2000000   0.7171664   0.2376289), wk =   0.0063492
        k(   38) = (   0.2000000   0.7171664   0.4752578), wk =   0.0063492
        k(   39) = (   0.2000000   0.7171664   0.7128867), wk =   0.0063492
        k(   40) = (   0.2000000   0.7171664   0.9505157), wk =   0.0063492
        k(   41) = (   0.4000000   0.0000000   0.0000000), wk =   0.0063492
        k(   42) = (   0.4000000   0.0000000   0.2376289), wk =   0.0063492
        k(   43) = (   0.4000000   0.0000000   0.4752578), wk =   0.0063492
        k(   44) = (   0.4000000   0.0000000   0.7128867), wk =   0.0063492
        k(   45) = (   0.4000000   0.0000000   0.9505157), wk =   0.0063492
        k(   46) = (   0.4000000   0.2390555   0.0000000), wk =   0.0063492
        k(   47) = (   0.4000000   0.2390555   0.2376289), wk =   0.0063492
        k(   48) = (   0.4000000   0.2390555   0.4752578), wk =   0.0063492
        k(   49) = (   0.4000000   0.2390555   0.7128867), wk =   0.0063492
        k(   50) = (   0.4000000   0.2390555   0.9505157), wk =   0.0063492
        k(   51) = (   0.4000000   0.4781110   0.0000000), wk =   0.0063492
        k(   52) = (   0.4000000   0.4781110   0.2376289), wk =   0.0063492
        k(   53) = (   0.4000000   0.4781110   0.4752578), wk =   0.0063492
        k(   54) = (   0.4000000   0.4781110   0.7128867), wk =   0.0063492
        k(   55) = (   0.4000000   0.4781110   0.9505157), wk =   0.0063492
        k(   56) = (   0.4000000   0.7171664   0.0000000), wk =   0.0063492
        k(   57) = (   0.4000000   0.7171664   0.2376289), wk =   0.0063492
        k(   58) = (   0.4000000   0.7171664   0.4752578), wk =   0.0063492
        k(   59) = (   0.4000000   0.7171664   0.7128867), wk =   0.0063492
        k(   60) = (   0.4000000   0.7171664   0.9505157), wk =   0.0063492
        k(   61) = (   0.0000000   0.2390555  -0.2376289), wk =   0.0063492
        k(   62) = (   0.0000000   0.2390555  -0.4752578), wk =   0.0063492
        k(   63) = (   0.0000000   0.2390555  -0.7128867), wk =   0.0063492
        k(   64) = (   0.0000000   0.2390555  -0.9505157), wk =   0.0063492
        k(   65) = (   0.0000000   0.4781110  -0.2376289), wk =   0.0063492
        k(   66) = (   0.0000000   0.4781110  -0.4752578), wk =   0.0063492
        k(   67) = (   0.0000000   0.4781110  -0.7128867), wk =   0.0063492
        k(   68) = (   0.0000000   0.4781110  -0.9505157), wk =   0.0063492
        k(   69) = (   0.0000000   0.7171664  -0.2376289), wk =   0.0063492
        k(   70) = (   0.0000000   0.7171664  -0.4752578), wk =   0.0063492
        k(   71) = (   0.0000000   0.7171664  -0.7128867), wk =   0.0063492
        k(   72) = (   0.0000000   0.7171664  -0.9505157), wk =   0.0063492
        k(   73) = (   0.2000000   0.0000000  -0.2376289), wk =   0.0063492
        k(   74) = (   0.2000000   0.0000000  -0.4752578), wk =   0.0063492
        k(   75) = (   0.2000000   0.0000000  -0.7128867), wk =   0.0063492
        k(   76) = (   0.2000000   0.0000000  -0.9505157), wk =   0.0063492
        k(   77) = (  -0.2000000   0.2390555   0.0000000), wk =   0.0063492
        k(   78) = (  -0.2000000   0.2390555  -0.2376289), wk =   0.0063492
        k(   79) = (   0.2000000  -0.2390555  -0.2376289), wk =   0.0063492
        k(   80) = (  -0.2000000  -0.2390555   0.2376289), wk =   0.0063492
        k(   81) = (  -0.2000000   0.2390555  -0.4752578), wk =   0.0063492
        k(   82) = (   0.2000000  -0.2390555  -0.4752578), wk =   0.0063492
        k(   83) = (  -0.2000000  -0.2390555   0.4752578), wk =   0.0063492
        k(   84) = (  -0.2000000   0.2390555  -0.7128867), wk =   0.0063492
        k(   85) = (   0.2000000  -0.2390555  -0.7128867), wk =   0.0063492
        k(   86) = (  -0.2000000  -0.2390555   0.7128867), wk =   0.0063492
        k(   87) = (  -0.2000000   0.2390555  -0.9505157), wk =   0.0063492
        k(   88) = (   0.2000000  -0.2390555  -0.9505157), wk =   0.0063492
        k(   89) = (  -0.2000000  -0.2390555   0.9505157), wk =   0.0063492
        k(   90) = (  -0.2000000   0.4781110   0.0000000), wk =   0.0063492
        k(   91) = (  -0.2000000   0.4781110  -0.2376289), wk =   0.0063492
        k(   92) = (   0.2000000  -0.4781110  -0.2376289), wk =   0.0063492
        k(   93) = (  -0.2000000  -0.4781110   0.2376289), wk =   0.0063492
        k(   94) = (  -0.2000000   0.4781110  -0.4752578), wk =   0.0063492
        k(   95) = (   0.2000000  -0.4781110  -0.4752578), wk =   0.0063492
        k(   96) = (  -0.2000000  -0.4781110   0.4752578), wk =   0.0063492
        k(   97) = (  -0.2000000   0.4781110  -0.7128867), wk =   0.0063492
        k(   98) = (   0.2000000  -0.4781110  -0.7128867), wk =   0.0063492
        k(   99) = (  -0.2000000  -0.4781110   0.7128867), wk =   0.0063492
        k(  100) = (  -0.2000000   0.4781110  -0.9505157), wk =   0.0063492
        k(  101) = (   0.2000000  -0.4781110  -0.9505157), wk =   0.0063492
        k(  102) = (  -0.2000000  -0.4781110   0.9505157), wk =   0.0063492
        k(  103) = (  -0.2000000   0.7171664   0.0000000), wk =   0.0063492
        k(  104) = (  -0.2000000   0.7171664  -0.2376289), wk =   0.0063492
        k(  105) = (   0.2000000  -0.7171664  -0.2376289), wk =   0.0063492
        k(  106) = (  -0.2000000  -0.7171664   0.2376289), wk =   0.0063492
        k(  107) = (  -0.2000000   0.7171664  -0.4752578), wk =   0.0063492
        k(  108) = (   0.2000000  -0.7171664  -0.4752578), wk =   0.0063492
        k(  109) = (  -0.2000000  -0.7171664   0.4752578), wk =   0.0063492
        k(  110) = (  -0.2000000   0.7171664  -0.7128867), wk =   0.0063492
        k(  111) = (   0.2000000  -0.7171664  -0.7128867), wk =   0.0063492
        k(  112) = (  -0.2000000  -0.7171664   0.7128867), wk =   0.0063492
        k(  113) = (  -0.2000000   0.7171664  -0.9505157), wk =   0.0063492
        k(  114) = (   0.2000000  -0.7171664  -0.9505157), wk =   0.0063492
        k(  115) = (  -0.2000000  -0.7171664   0.9505157), wk =   0.0063492
        k(  116) = (   0.4000000   0.0000000  -0.2376289), wk =   0.0063492
        k(  117) = (   0.4000000   0.0000000  -0.4752578), wk =   0.0063492
        k(  118) = (   0.4000000   0.0000000  -0.7128867), wk =   0.0063492
        k(  119) = (   0.4000000   0.0000000  -0.9505157), wk =   0.0063492
        k(  120) = (  -0.4000000   0.2390555   0.0000000), wk =   0.0063492
        k(  121) = (  -0.4000000   0.2390555  -0.2376289), wk =   0.0063492
        k(  122) = (   0.4000000  -0.2390555  -0.2376289), wk =   0.0063492
        k(  123) = (  -0.4000000  -0.2390555   0.2376289), wk =   0.0063492
        k(  124) = (  -0.4000000   0.2390555  -0.4752578), wk =   0.0063492
        k(  125) = (   0.4000000  -0.2390555  -0.4752578), wk =   0.0063492
        k(  126) = (  -0.4000000  -0.2390555   0.4752578), wk =   0.0063492
        k(  127) = (  -0.4000000   0.2390555  -0.7128867), wk =   0.0063492
        k(  128) = (   0.4000000  -0.2390555  -0.7128867), wk =   0.0063492
        k(  129) = (  -0.4000000  -0.2390555   0.7128867), wk =   0.0063492
        k(  130) = (  -0.4000000   0.2390555  -0.9505157), wk =   0.0063492
        k(  131) = (   0.4000000  -0.2390555  -0.9505157), wk =   0.0063492
        k(  132) = (  -0.4000000  -0.2390555   0.9505157), wk =   0.0063492
        k(  133) = (  -0.4000000   0.4781110   0.0000000), wk =   0.0063492
        k(  134) = (  -0.4000000   0.4781110  -0.2376289), wk =   0.0063492
        k(  135) = (   0.4000000  -0.4781110  -0.2376289), wk =   0.0063492
        k(  136) = (  -0.4000000  -0.4781110   0.2376289), wk =   0.0063492
        k(  137) = (  -0.4000000   0.4781110  -0.4752578), wk =   0.0063492
        k(  138) = (   0.4000000  -0.4781110  -0.4752578), wk =   0.0063492
        k(  139) = (  -0.4000000  -0.4781110   0.4752578), wk =   0.0063492
        k(  140) = (  -0.4000000   0.4781110  -0.7128867), wk =   0.0063492
        k(  141) = (   0.4000000  -0.4781110  -0.7128867), wk =   0.0063492
        k(  142) = (  -0.4000000  -0.4781110   0.7128867), wk =   0.0063492
        k(  143) = (  -0.4000000   0.4781110  -0.9505157), wk =   0.0063492
        k(  144) = (   0.4000000  -0.4781110  -0.9505157), wk =   0.0063492
        k(  145) = (  -0.4000000  -0.4781110   0.9505157), wk =   0.0063492
        k(  146) = (  -0.4000000   0.7171664   0.0000000), wk =   0.0063492
        k(  147) = (  -0.4000000   0.7171664  -0.2376289), wk =   0.0063492
        k(  148) = (   0.4000000  -0.7171664  -0.2376289), wk =   0.0063492
        k(  149) = (  -0.4000000  -0.7171664   0.2376289), wk =   0.0063492
        k(  150) = (  -0.4000000   0.7171664  -0.4752578), wk =   0.0063492
        k(  151) = (   0.4000000  -0.7171664  -0.4752578), wk =   0.0063492
        k(  152) = (  -0.4000000  -0.7171664   0.4752578), wk =   0.0063492
        k(  153) = (  -0.4000000   0.7171664  -0.7128867), wk =   0.0063492
        k(  154) = (   0.4000000  -0.7171664  -0.7128867), wk =   0.0063492
        k(  155) = (  -0.4000000  -0.7171664   0.7128867), wk =   0.0063492
        k(  156) = (  -0.4000000   0.7171664  -0.9505157), wk =   0.0063492
        k(  157) = (   0.4000000  -0.7171664  -0.9505157), wk =   0.0063492
        k(  158) = (  -0.4000000  -0.7171664   0.9505157), wk =   0.0063492

                       cryst. coord.
        k(    1) = (   0.0000000   0.0000000   0.0000000), wk =   0.0031746
        k(    2) = (   0.0000000   0.0000000   0.1111111), wk =   0.0063492
        k(    3) = (   0.0000000   0.0000000   0.2222222), wk =   0.0063492
        k(    4) = (   0.0000000   0.0000000   0.3333333), wk =   0.0063492
        k(    5) = (   0.0000000   0.0000000   0.4444444), wk =   0.0063492
        k(    6) = (   0.0000000   0.1428571   0.0000000), wk =   0.0063492
        k(    7) = (   0.0000000   0.1428571   0.1111111), wk =   0.0063492
        k(    8) = (   0.0000000   0.1428571   0.2222222), wk =   0.0063492
        k(    9) = (   0.0000000   0.1428571   0.3333333), wk =   0.0063492
        k(   10) = (   0.0000000   0.1428571   0.4444444), wk =   0.0063492
        k(   11) = (   0.0000000   0.2857143   0.0000000), wk =   0.0063492
        k(   12) = (   0.0000000   0.2857143   0.1111111), wk =   0.0063492
        k(   13) = (   0.0000000   0.2857143   0.2222222), wk =   0.0063492
        k(   14) = (   0.0000000   0.2857143   0.3333333), wk =   0.0063492
        k(   15) = (   0.0000000   0.2857143   0.4444444), wk =   0.0063492
        k(   16) = (   0.0000000   0.4285714   0.0000000), wk =   0.0063492
        k(   17) = (   0.0000000   0.4285714   0.1111111), wk =   0.0063492
        k(   18) = (   0.0000000   0.4285714   0.2222222), wk =   0.0063492
        k(   19) = (   0.0000000   0.4285714   0.3333333), wk =   0.0063492
        k(   20) = (   0.0000000   0.4285714   0.4444444), wk =   0.0063492
        k(   21) = (   0.2000000   0.0000000   0.0000000), wk =   0.0063492
        k(   22) = (   0.2000000   0.0000000   0.1111111), wk =   0.0063492
        k(   23) = (   0.2000000   0.0000000   0.2222222), wk =   0.0063492
        k(   24) = (   0.2000000   0.0000000   0.3333333), wk =   0.0063492
        k(   25) = (   0.2000000   0.0000000   0.4444444), wk =   0.0063492
        k(   26) = (   0.2000000   0.1428571   0.0000000), wk =   0.0063492
        k(   27) = (   0.2000000   0.1428571   0.1111111), wk =   0.0063492
        k(   28) = (   0.2000000   0.1428571   0.2222222), wk =   0.0063492
        k(   29) = (   0.2000000   0.1428571   0.3333333), wk =   0.0063492
        k(   30) = (   0.2000000   0.1428571   0.4444444), wk =   0.0063492
        k(   31) = (   0.2000000   0.2857143   0.0000000), wk =   0.0063492
        k(   32) = (   0.2000000   0.2857143   0.1111111), wk =   0.0063492
        k(   33) = (   0.2000000   0.2857143   0.2222222), wk =   0.0063492
        k(   34) = (   0.2000000   0.2857143   0.3333333), wk =   0.0063492
        k(   35) = (   0.2000000   0.2857143   0.4444444), wk =   0.0063492
        k(   36) = (   0.2000000   0.4285714   0.0000000), wk =   0.0063492
        k(   37) = (   0.2000000   0.4285714   0.1111111), wk =   0.0063492
        k(   38) = (   0.2000000   0.4285714   0.2222222), wk =   0.0063492
        k(   39) = (   0.2000000   0.4285714   0.3333333), wk =   0.0063492
        k(   40) = (   0.2000000   0.4285714   0.4444444), wk =   0.0063492
        k(   41) = (   0.4000000   0.0000000   0.0000000), wk =   0.0063492
        k(   42) = (   0.4000000   0.0000000   0.1111111), wk =   0.0063492
        k(   43) = (   0.4000000   0.0000000   0.2222222), wk =   0.0063492
        k(   44) = (   0.4000000   0.0000000   0.3333333), wk =   0.0063492
        k(   45) = (   0.4000000   0.0000000   0.4444444), wk =   0.0063492
        k(   46) = (   0.4000000   0.1428571   0.0000000), wk =   0.0063492
        k(   47) = (   0.4000000   0.1428571   0.1111111), wk =   0.0063492
        k(   48) = (   0.4000000   0.1428571   0.2222222), wk =   0.0063492
        k(   49) = (   0.4000000   0.1428571   0.3333333), wk =   0.0063492
        k(   50) = (   0.4000000   0.1428571   0.4444444), wk =   0.0063492
        k(   51) = (   0.4000000   0.2857143   0.0000000), wk =   0.0063492
        k(   52) = (   0.4000000   0.2857143   0.1111111), wk =   0.0063492
        k(   53) = (   0.4000000   0.2857143   0.2222222), wk =   0.0063492
        k(   54) = (   0.4000000   0.2857143   0.3333333), wk =   0.0063492
        k(   55) = (   0.4000000   0.2857143   0.4444444), wk =   0.0063492
        k(   56) = (   0.4000000   0.4285714   0.0000000), wk =   0.0063492
        k(   57) = (   0.4000000   0.4285714   0.1111111), wk =   0.0063492
        k(   58) = (   0.4000000   0.4285714   0.2222222), wk =   0.0063492
        k(   59) = (   0.4000000   0.4285714   0.3333333), wk =   0.0063492
        k(   60) = (   0.4000000   0.4285714   0.4444444), wk =   0.0063492
        k(   61) = (   0.0000000   0.1428571  -0.1111111), wk =   0.0063492
        k(   62) = (   0.0000000   0.1428571  -0.2222222), wk =   0.0063492
        k(   63) = (   0.0000000   0.1428571  -0.3333333), wk =   0.0063492
        k(   64) = (   0.0000000   0.1428571  -0.4444444), wk =   0.0063492
        k(   65) = (   0.0000000   0.2857143  -0.1111111), wk =   0.0063492
        k(   66) = (   0.0000000   0.2857143  -0.2222222), wk =   0.0063492
        k(   67) = (   0.0000000   0.2857143  -0.3333333), wk =   0.0063492
        k(   68) = (   0.0000000   0.2857143  -0.4444444), wk =   0.0063492
        k(   69) = (   0.0000000   0.4285714  -0.1111111), wk =   0.0063492
        k(   70) = (   0.0000000   0.4285714  -0.2222222), wk =   0.0063492
        k(   71) = (   0.0000000   0.4285714  -0.3333333), wk =   0.0063492
        k(   72) = (   0.0000000   0.4285714  -0.4444444), wk =   0.0063492
        k(   73) = (   0.2000000   0.0000000  -0.1111111), wk =   0.0063492
        k(   74) = (   0.2000000   0.0000000  -0.2222222), wk =   0.0063492
        k(   75) = (   0.2000000   0.0000000  -0.3333333), wk =   0.0063492
        k(   76) = (   0.2000000   0.0000000  -0.4444444), wk =   0.0063492
        k(   77) = (  -0.2000000   0.1428571   0.0000000), wk =   0.0063492
        k(   78) = (  -0.2000000   0.1428571  -0.1111111), wk =   0.0063492
        k(   79) = (   0.2000000  -0.1428571  -0.1111111), wk =   0.0063492
        k(   80) = (  -0.2000000  -0.1428571   0.1111111), wk =   0.0063492
        k(   81) = (  -0.2000000   0.1428571  -0.2222222), wk =   0.0063492
        k(   82) = (   0.2000000  -0.1428571  -0.2222222), wk =   0.0063492
        k(   83) = (  -0.2000000  -0.1428571   0.2222222), wk =   0.0063492
        k(   84) = (  -0.2000000   0.1428571  -0.3333333), wk =   0.0063492
        k(   85) = (   0.2000000  -0.1428571  -0.3333333), wk =   0.0063492
        k(   86) = (  -0.2000000  -0.1428571   0.3333333), wk =   0.0063492
        k(   87) = (  -0.2000000   0.1428571  -0.4444444), wk =   0.0063492
        k(   88) = (   0.2000000  -0.1428571  -0.4444444), wk =   0.0063492
        k(   89) = (  -0.2000000  -0.1428571   0.4444444), wk =   0.0063492
        k(   90) = (  -0.2000000   0.2857143   0.0000000), wk =   0.0063492
        k(   91) = (  -0.2000000   0.2857143  -0.1111111), wk =   0.0063492
        k(   92) = (   0.2000000  -0.2857143  -0.1111111), wk =   0.0063492
        k(   93) = (  -0.2000000  -0.2857143   0.1111111), wk =   0.0063492
        k(   94) = (  -0.2000000   0.2857143  -0.2222222), wk =   0.0063492
        k(   95) = (   0.2000000  -0.2857143  -0.2222222), wk =   0.0063492
        k(   96) = (  -0.2000000  -0.2857143   0.2222222), wk =   0.0063492
        k(   97) = (  -0.2000000   0.2857143  -0.3333333), wk =   0.0063492
        k(   98) = (   0.2000000  -0.2857143  -0.3333333), wk =   0.0063492
        k(   99) = (  -0.2000000  -0.2857143   0.3333333), wk =   0.0063492
        k(  100) = (  -0.2000000   0.2857143  -0.4444444), wk =   0.0063492
        k(  101) = (   0.2000000  -0.2857143  -0.4444444), wk =   0.0063492
        k(  102) = (  -0.2000000  -0.2857143   0.4444444), wk =   0.0063492
        k(  103) = (  -0.2000000   0.4285714   0.0000000), wk =   0.0063492
        k(  104) = (  -0.2000000   0.4285714  -0.1111111), wk =   0.0063492
        k(  105) = (   0.2000000  -0.4285714  -0.1111111), wk =   0.0063492
        k(  106) = (  -0.2000000  -0.4285714   0.1111111), wk =   0.0063492
        k(  107) = (  -0.2000000   0.4285714  -0.2222222), wk =   0.0063492
        k(  108) = (   0.2000000  -0.4285714  -0.2222222), wk =   0.0063492
        k(  109) = (  -0.2000000  -0.4285714   0.2222222), wk =   0.0063492
        k(  110) = (  -0.2000000   0.4285714  -0.3333333), wk =   0.0063492
        k(  111) = (   0.2000000  -0.4285714  -0.3333333), wk =   0.0063492
        k(  112) = (  -0.2000000  -0.4285714   0.3333333), wk =   0.0063492
        k(  113) = (  -0.2000000   0.4285714  -0.4444444), wk =   0.0063492
        k(  114) = (   0.2000000  -0.4285714  -0.4444444), wk =   0.0063492
        k(  115) = (  -0.2000000  -0.4285714   0.4444444), wk =   0.0063492
        k(  116) = (   0.4000000   0.0000000  -0.1111111), wk =   0.0063492
        k(  117) = (   0.4000000   0.0000000  -0.2222222), wk =   0.0063492
        k(  118) = (   0.4000000   0.0000000  -0.3333333), wk =   0.0063492
        k(  119) = (   0.4000000   0.0000000  -0.4444444), wk =   0.0063492
        k(  120) = (  -0.4000000   0.1428571   0.0000000), wk =   0.0063492
        k(  121) = (  -0.4000000   0.1428571  -0.1111111), wk =   0.0063492
        k(  122) = (   0.4000000  -0.1428571  -0.1111111), wk =   0.0063492
        k(  123) = (  -0.4000000  -0.1428571   0.1111111), wk =   0.0063492
        k(  124) = (  -0.4000000   0.1428571  -0.2222222), wk =   0.0063492
        k(  125) = (   0.4000000  -0.1428571  -0.2222222), wk =   0.0063492
        k(  126) = (  -0.4000000  -0.1428571   0.2222222), wk =   0.0063492
        k(  127) = (  -0.4000000   0.1428571  -0.3333333), wk =   0.0063492
        k(  128) = (   0.4000000  -0.1428571  -0.3333333), wk =   0.0063492
        k(  129) = (  -0.4000000  -0.1428571   0.3333333), wk =   0.0063492
        k(  130) = (  -0.4000000   0.1428571  -0.4444444), wk =   0.0063492
        k(  131) = (   0.4000000  -0.1428571  -0.4444444), wk =   0.0063492
        k(  132) = (  -0.4000000  -0.1428571   0.4444444), wk =   0.0063492
        k(  133) = (  -0.4000000   0.2857143   0.0000000), wk =   0.0063492
        k(  134) = (  -0.4000000   0.2857143  -0.1111111), wk =   0.0063492
        k(  135) = (   0.4000000  -0.2857143  -0.1111111), wk =   0.0063492
        k(  136) = (  -0.4000000  -0.2857143   0.1111111), wk =   0.0063492
        k(  137) = (  -0.4000000   0.2857143  -0.2222222), wk =   0.0063492
        k(  138) = (   0.4000000  -0.2857143  -0.2222222), wk =   0.0063492
        k(  139) = (  -0.4000000  -0.2857143   0.2222222), wk =   0.0063492
        k(  140) = (  -0.4000000   0.2857143  -0.3333333), wk =   0.0063492
        k(  141) = (   0.4000000  -0.2857143  -0.3333333), wk =   0.0063492
        k(  142) = (  -0.4000000  -0.2857143   0.3333333), wk =   0.0063492
        k(  143) = (  -0.4000000   0.2857143  -0.4444444), wk =   0.0063492
        k(  144) = (   0.4000000  -0.2857143  -0.4444444), wk =   0.0063492
        k(  145) = (  -0.4000000  -0.2857143   0.4444444), wk =   0.0063492
        k(  146) = (  -0.4000000   0.4285714   0.0000000), wk =   0.0063492
        k(  147) = (  -0.4000000   0.4285714  -0.1111111), wk =   0.0063492
        k(  148) = (   0.4000000  -0.4285714  -0.1111111), wk =   0.0063492
        k(  149) = (  -0.4000000  -0.4285714   0.1111111), wk =   0.0063492
        k(  150) = (  -0.4000000   0.4285714  -0.2222222), wk =   0.0063492
        k(  151) = (   0.4000000  -0.4285714  -0.2222222), wk =   0.0063492
        k(  152) = (  -0.4000000  -0.4285714   0.2222222), wk =   0.0063492
        k(  153) = (  -0.4000000   0.4285714  -0.3333333), wk =   0.0063492
        k(  154) = (   0.4000000  -0.4285714  -0.3333333), wk =   0.0063492
        k(  155) = (  -0.4000000  -0.4285714   0.3333333), wk =   0.0063492
        k(  156) = (  -0.4000000   0.4285714  -0.4444444), wk =   0.0063492
        k(  157) = (   0.4000000  -0.4285714  -0.4444444), wk =   0.0063492
        k(  158) = (  -0.4000000  -0.4285714   0.4444444), wk =   0.0063492

     Dense  grid:  1338317 G-vectors     FFT dimensions: ( 216, 125, 100)

     Smooth grid:   301689 G-vectors     FFT dimensions: ( 128,  80,  60)

     Dynamical RAM for                 wfc:       2.05 MB

     Dynamical RAM for     wfc (w. buffer):     649.58 MB

     Dynamical RAM for           str. fact:       2.55 MB

     Dynamical RAM for           local pot:       0.00 MB

     Dynamical RAM for          nlocal pot:       5.03 MB

     Dynamical RAM for                qrad:      10.54 MB

     Dynamical RAM for          rho,v,vnew:       8.77 MB

     Dynamical RAM for               rhoin:       2.92 MB

     Dynamical RAM for            rho*nmix:      20.42 MB

     Dynamical RAM for           G-vectors:       2.47 MB

     Dynamical RAM for          h,s,v(r/c):       2.38 MB

     Dynamical RAM for          <psi|beta>:       0.49 MB

     Dynamical RAM for                 psi:       4.10 MB

     Dynamical RAM for                hpsi:       4.10 MB

     Dynamical RAM for                spsi:       4.10 MB

     Dynamical RAM for      wfcinit/wfcrot:       5.36 MB

     Dynamical RAM for           addusdens:     129.55 MB

     Dynamical RAM for          addusforce:     148.82 MB

     Dynamical RAM for         addusstress:     129.23 MB

     Estimated static dynamical RAM per process >     710.42 MB

     Estimated max dynamical RAM per process >     859.24 MB

     Estimated total dynamical RAM >      26.85 GB

     Check: negative core charge=   -0.000003
     Generating pointlists ...
     new r_m :   0.0758 (alat units)  1.5154 (a.u.) for type    1
     new r_m :   0.0834 (alat units)  1.6682 (a.u.) for type    2
     new r_m :   0.0599 (alat units)  1.1980 (a.u.) for type    3
     new r_m :   0.0599 (alat units)  1.1980 (a.u.) for type    4

     Initial potential from superposition of free atoms

     starting charge  188.99132, renormalised to  189.00000
     Starting wfcs are  137 randomized atomic wfcs
     Checking if some PAW data can be deallocated... 
       PAW data deallocated on   24 nodes for type:  1
       PAW data deallocated on   16 nodes for type:  3

     total cpu time spent up to now is     1354.9 secs

     Self-consistent Calculation

     iteration #  1     ecut=   100.00 Ry     beta= 0.40
     Davidson diagonalization with overlap
     ethr =  1.00E-02,  avg # of iterations =  3.0

     negative rho (up, down):  0.000E+00 8.468E-05

     total cpu time spent up to now is     4993.1 secs

     total energy              =   -2123.76369732 Ry
     estimated scf accuracy    <       6.94723675 Ry

     total magnetization       =    19.00 Bohr mag/cell
     absolute magnetization    =    19.00 Bohr mag/cell

     iteration #  2     ecut=   100.00 Ry     beta= 0.40
     Davidson diagonalization with overlap
     ethr =  3.68E-03,  avg # of iterations =  2.0

     negative rho (up, down):  0.000E+00 4.751E-05

     total cpu time spent up to now is     8416.8 secs

     total energy              =   -2121.93114724 Ry
     estimated scf accuracy    <      23.94730274 Ry

     total magnetization       =    10.33 Bohr mag/cell
     absolute magnetization    =    10.76 Bohr mag/cell

     iteration #  3     ecut=   100.00 Ry     beta= 0.40
     Davidson diagonalization with overlap
     ethr =  3.68E-03,  avg # of iterations =  2.0

     negative rho (up, down):  0.000E+00 3.315E-05

     total cpu time spent up to now is    11287.2 secs

     total energy              =   -2124.10178565 Ry
     estimated scf accuracy    <      28.42809869 Ry

     total magnetization       =     7.67 Bohr mag/cell
     absolute magnetization    =     8.52 Bohr mag/cell

     iteration #  4     ecut=   100.00 Ry     beta= 0.40
     Davidson diagonalization with overlap
     ethr =  3.68E-03,  avg # of iterations =  1.9

     negative rho (up, down):  0.000E+00 1.479E-04

     total cpu time spent up to now is    14105.2 secs

     total energy              =   -2125.93861527 Ry
     estimated scf accuracy    <       2.13978337 Ry

     total magnetization       =    19.00 Bohr mag/cell
     absolute magnetization    =    19.00 Bohr mag/cell

     iteration #  5     ecut=   100.00 Ry     beta= 0.40
     Davidson diagonalization with overlap
     ethr =  1.13E-03,  avg # of iterations =  1.6

     negative rho (up, down):  0.000E+00 4.220E-04

     total cpu time spent up to now is    16856.7 secs

     total energy              =   -2125.81451487 Ry
     estimated scf accuracy    <       0.72620013 Ry

     total magnetization       =    19.00 Bohr mag/cell
     absolute magnetization    =    19.00 Bohr mag/cell

     iteration #  6     ecut=   100.00 Ry     beta= 0.40
     Davidson diagonalization with overlap
     ethr =  3.84E-04,  avg # of iterations =  2.4

     negative rho (up, down):  0.000E+00 4.481E-04

     total cpu time spent up to now is    19883.5 secs

     total energy              =   -2125.94952411 Ry
     estimated scf accuracy    <       0.55365173 Ry

     total magnetization       =    19.07 Bohr mag/cell
     absolute magnetization    =    19.07 Bohr mag/cell

     iteration #  7     ecut=   100.00 Ry     beta= 0.40
     Davidson diagonalization with overlap
     ethr =  2.93E-04,  avg # of iterations =  1.0

     negative rho (up, down):  0.000E+00 6.818E-04

     total cpu time spent up to now is    22575.1 secs

     total energy              =   -2125.93869445 Ry
     estimated scf accuracy    <       0.35491411 Ry

     total magnetization       =    19.00 Bohr mag/cell
     absolute magnetization    =    19.01 Bohr mag/cell

     iteration #  8     ecut=   100.00 Ry     beta= 0.40
     Davidson diagonalization with overlap
     ethr =  1.88E-04,  avg # of iterations =  4.7

     negative rho (up, down):  0.000E+00 9.600E-04

     total cpu time spent up to now is    25618.0 secs

     total energy              =   -2125.94133620 Ry
     estimated scf accuracy    <       0.04271333 Ry

     total magnetization       =    19.00 Bohr mag/cell
     absolute magnetization    =    19.02 Bohr mag/cell

     iteration #  9     ecut=   100.00 Ry     beta= 0.40
     Davidson diagonalization with overlap
     c_bands:  1 eigenvalues not converged
     c_bands:  2 eigenvalues not converged
     c_bands:  1 eigenvalues not converged
     c_bands:  1 eigenvalues not converged
     c_bands:  1 eigenvalues not converged
     c_bands:  1 eigenvalues not converged
     c_bands:  1 eigenvalues not converged
     c_bands:  1 eigenvalues not converged
     c_bands:  1 eigenvalues not converged
     c_bands:  1 eigenvalues not converged
     c_bands:  1 eigenvalues not converged
     c_bands:  1 eigenvalues not converged
     c_bands:  1 eigenvalues not converged
     c_bands:  1 eigenvalues not converged
     c_bands:  1 eigenvalues not converged
     c_bands:  1 eigenvalues not converged
     c_bands:  1 eigenvalues not converged
     ethr =  2.26E-05,  avg # of iterations = 14.1

     negative rho (up, down):  0.000E+00 9.472E-04

     total cpu time spent up to now is    30444.4 secs

     total energy              =   -2125.96518880 Ry
     estimated scf accuracy    <       0.29213203 Ry

     total magnetization       =    19.00 Bohr mag/cell
     absolute magnetization    =    19.03 Bohr mag/cell

     iteration # 10     ecut=   100.00 Ry     beta= 0.40
     Davidson diagonalization with overlap
     c_bands:  1 eigenvalues not converged
     ethr =  2.26E-05,  avg # of iterations =  1.2

     negative rho (up, down):  0.000E+00 8.822E-04

     total cpu time spent up to now is    33147.0 secs

     total energy              =   -2125.95134501 Ry
     estimated scf accuracy    <       0.23950923 Ry

     total magnetization       =    19.00 Bohr mag/cell
     absolute magnetization    =    19.03 Bohr mag/cell

     iteration # 11     ecut=   100.00 Ry     beta= 0.40
     Davidson diagonalization with overlap
     ethr =  2.26E-05,  avg # of iterations =  1.9

     negative rho (up, down):  0.000E+00 8.806E-04

     total cpu time spent up to now is    35963.9 secs

     total energy              =   -2125.95683979 Ry
     estimated scf accuracy    <       0.00415738 Ry

     total magnetization       =    19.00 Bohr mag/cell
     absolute magnetization    =    19.04 Bohr mag/cell

     iteration # 12     ecut=   100.00 Ry     beta= 0.40
     Davidson diagonalization with overlap
     c_bands:  1 eigenvalues not converged
     c_bands:  1 eigenvalues not converged
     c_bands:  1 eigenvalues not converged
     c_bands:  1 eigenvalues not converged
     c_bands:  1 eigenvalues not converged
     c_bands:  1 eigenvalues not converged
     c_bands:  1 eigenvalues not converged
     c_bands:  1 eigenvalues not converged
     c_bands:  1 eigenvalues not converged
     c_bands:  2 eigenvalues not converged
     c_bands:  1 eigenvalues not converged
     c_bands:  1 eigenvalues not converged
     c_bands:  2 eigenvalues not converged
     c_bands:  1 eigenvalues not converged
     c_bands:  1 eigenvalues not converged
     c_bands:  1 eigenvalues not converged
     c_bands:  1 eigenvalues not converged
     c_bands:  1 eigenvalues not converged
     c_bands:  1 eigenvalues not converged
     c_bands:  1 eigenvalues not converged
     c_bands:  1 eigenvalues not converged
     c_bands:  1 eigenvalues not converged
     c_bands:  1 eigenvalues not converged
     c_bands:  1 eigenvalues not converged
     c_bands:  1 eigenvalues not converged
     c_bands:  1 eigenvalues not converged
     c_bands:  1 eigenvalues not converged
     c_bands:  1 eigenvalues not converged
     c_bands:  1 eigenvalues not converged
     c_bands:  1 eigenvalues not converged
     c_bands:  1 eigenvalues not converged
     c_bands:  1 eigenvalues not converged
     c_bands:  1 eigenvalues not converged
     c_bands:  1 eigenvalues not converged
     c_bands:  1 eigenvalues not converged
     c_bands:  1 eigenvalues not converged
     c_bands:  1 eigenvalues not converged
     c_bands:  1 eigenvalues not converged
     c_bands:  1 eigenvalues not converged
     c_bands:  1 eigenvalues not converged
     c_bands:  1 eigenvalues not converged
     ethr =  2.20E-06,  avg # of iterations = 12.9

     negative rho (up, down):  0.000E+00 8.884E-04

     total cpu time spent up to now is    40863.8 secs

     total energy              =   -2125.95641800 Ry
     estimated scf accuracy    <       0.09351526 Ry

     total magnetization       =    19.00 Bohr mag/cell
     absolute magnetization    =    19.05 Bohr mag/cell

     iteration # 13     ecut=   100.00 Ry     beta= 0.40
     Davidson diagonalization with overlap
     c_bands:  1 eigenvalues not converged
     c_bands:  1 eigenvalues not converged
     c_bands:  1 eigenvalues not converged
     ethr =  2.20E-06,  avg # of iterations =  2.5

     negative rho (up, down):  0.000E+00 8.772E-04

     total cpu time spent up to now is    43784.5 secs

     total energy              =   -2125.95852156 Ry
     estimated scf accuracy    <       0.00124080 Ry

     total magnetization       =    19.00 Bohr mag/cell
     absolute magnetization    =    19.04 Bohr mag/cell

     iteration # 14     ecut=   100.00 Ry     beta= 0.40
     Davidson diagonalization with overlap
     ethr =  6.57E-07,  avg # of iterations =  1.3

     negative rho (up, down):  0.000E+00 8.760E-04

     total cpu time spent up to now is    46504.1 secs

     total energy              =   -2125.95858805 Ry
     estimated scf accuracy    <       0.00860684 Ry

     total magnetization       =    19.00 Bohr mag/cell
     absolute magnetization    =    19.05 Bohr mag/cell

     iteration # 15     ecut=   100.00 Ry     beta= 0.40
     Davidson diagonalization with overlap
     ethr =  6.57E-07,  avg # of iterations =  1.0

     negative rho (up, down):  0.000E+00 8.722E-04

     total cpu time spent up to now is    49195.5 secs

     total energy              =   -2125.95848181 Ry
     estimated scf accuracy    <       0.00545426 Ry

     total magnetization       =    19.00 Bohr mag/cell
     absolute magnetization    =    19.05 Bohr mag/cell

     iteration # 16     ecut=   100.00 Ry     beta= 0.40
     Davidson diagonalization with overlap
     ethr =  6.57E-07,  avg # of iterations =  1.0

     negative rho (up, down):  0.000E+00 8.716E-04

     total cpu time spent up to now is    51886.4 secs

     total energy              =   -2125.95854821 Ry
     estimated scf accuracy    <       0.00029368 Ry

     total magnetization       =    19.00 Bohr mag/cell
     absolute magnetization    =    19.05 Bohr mag/cell

     iteration # 17     ecut=   100.00 Ry     beta= 0.40
     Davidson diagonalization with overlap
     ethr =  1.55E-07,  avg # of iterations =  1.2

     negative rho (up, down):  0.000E+00 8.712E-04

     total cpu time spent up to now is    54596.5 secs

     total energy              =   -2125.95856079 Ry
     estimated scf accuracy    <       0.00006236 Ry

     total magnetization       =    19.00 Bohr mag/cell
     absolute magnetization    =    19.05 Bohr mag/cell

     iteration # 18     ecut=   100.00 Ry     beta= 0.40
     Davidson diagonalization with overlap
     ethr =  3.30E-08,  avg # of iterations =  3.3

     negative rho (up, down):  0.000E+00 8.714E-04

     total cpu time spent up to now is    58113.5 secs

     total energy              =   -2125.95857235 Ry
     estimated scf accuracy    <       0.00013927 Ry

     total magnetization       =    19.00 Bohr mag/cell
     absolute magnetization    =    19.05 Bohr mag/cell

     iteration # 19     ecut=   100.00 Ry     beta= 0.40
     Davidson diagonalization with overlap
     ethr =  3.30E-08,  avg # of iterations =  1.0

     negative rho (up, down):  0.000E+00 8.717E-04

     total cpu time spent up to now is    60804.7 secs

     total energy              =   -2125.95857513 Ry
     estimated scf accuracy    <       0.00000685 Ry

     total magnetization       =    19.00 Bohr mag/cell
     absolute magnetization    =    19.05 Bohr mag/cell

     iteration # 20     ecut=   100.00 Ry     beta= 0.40
     Davidson diagonalization with overlap
     ethr =  3.62E-09,  avg # of iterations =  3.1

     negative rho (up, down):  0.000E+00 8.716E-04

     total cpu time spent up to now is    64068.6 secs

     total energy              =   -2125.95857714 Ry
     estimated scf accuracy    <       0.00000159 Ry

     total magnetization       =    19.00 Bohr mag/cell
     absolute magnetization    =    19.05 Bohr mag/cell

     iteration # 21     ecut=   100.00 Ry     beta= 0.40
     Davidson diagonalization with overlap
     ethr =  8.41E-10,  avg # of iterations =  3.6

     negative rho (up, down):  0.000E+00 8.712E-04

     total cpu time spent up to now is    67406.3 secs

     total energy              =   -2125.95857760 Ry
     estimated scf accuracy    <       0.00000034 Ry

     total magnetization       =    19.00 Bohr mag/cell
     absolute magnetization    =    19.05 Bohr mag/cell

     iteration # 22     ecut=   100.00 Ry     beta= 0.40
     Davidson diagonalization with overlap
     ethr =  1.81E-10,  avg # of iterations =  2.5

     negative rho (up, down):  0.000E+00 8.711E-04

     total cpu time spent up to now is    70876.5 secs

     total energy              =   -2125.95857797 Ry
     estimated scf accuracy    <       0.00000005 Ry

     total magnetization       =    19.00 Bohr mag/cell
     absolute magnetization    =    19.05 Bohr mag/cell

     iteration # 23     ecut=   100.00 Ry     beta= 0.40
     Davidson diagonalization with overlap
     ethr =  2.75E-11,  avg # of iterations =  3.3

     negative rho (up, down):  0.000E+00 8.711E-04

     total cpu time spent up to now is    74640.0 secs

     total energy              =   -2125.95857807 Ry
     estimated scf accuracy    <       0.00000003 Ry

     total magnetization       =    19.00 Bohr mag/cell
     absolute magnetization    =    19.05 Bohr mag/cell

     iteration # 24     ecut=   100.00 Ry     beta= 0.40
     Davidson diagonalization with overlap
     ethr =  1.61E-11,  avg # of iterations =  2.0

     negative rho (up, down):  0.000E+00 8.712E-04

     total cpu time spent up to now is    77797.8 secs

     total energy              =   -2125.95857811 Ry
     estimated scf accuracy    <          7.2E-09 Ry

     total magnetization       =    19.00 Bohr mag/cell
     absolute magnetization    =    19.05 Bohr mag/cell

     iteration # 25     ecut=   100.00 Ry     beta= 0.40
     Davidson diagonalization with overlap
     ethr =  3.79E-12,  avg # of iterations =  3.2

     negative rho (up, down):  0.000E+00 8.712E-04

     total cpu time spent up to now is    81316.9 secs

     total energy              =   -2125.95857813 Ry
     estimated scf accuracy    <          9.4E-09 Ry

     total magnetization       =    19.00 Bohr mag/cell
     absolute magnetization    =    19.05 Bohr mag/cell

     iteration # 26     ecut=   100.00 Ry     beta= 0.40
     Davidson diagonalization with overlap
     ethr =  3.79E-12,  avg # of iterations =  2.0

     negative rho (up, down):  0.000E+00 8.712E-04

     total cpu time spent up to now is    84237.5 secs

     total energy              =   -2125.95857813 Ry
     estimated scf accuracy    <          1.0E-09 Ry

     total magnetization       =    19.00 Bohr mag/cell
     absolute magnetization    =    19.05 Bohr mag/cell

     iteration # 27     ecut=   100.00 Ry     beta= 0.40
     Davidson diagonalization with overlap
     ethr =  5.27E-13,  avg # of iterations =  3.8

     negative rho (up, down):  0.000E+00 8.712E-04

     total cpu time spent up to now is    87795.9 secs

     total energy              =   -2125.95857814 Ry
     estimated scf accuracy    <          4.4E-10 Ry

     total magnetization       =    19.00 Bohr mag/cell
     absolute magnetization    =    19.05 Bohr mag/cell

     iteration # 28     ecut=   100.00 Ry     beta= 0.40
     Davidson diagonalization with overlap
     ethr =  2.30E-13,  avg # of iterations =  2.1

     negative rho (up, down):  0.000E+00 8.712E-04

     Magnetic moment per site:
     atom:    1    charge:    7.8546    magn:    0.0009    constr:    0.0000
     atom:    2    charge:   12.9339    magn:    3.6274    constr:    0.0000
     atom:    3    charge:   12.9373    magn:    3.6222    constr:    0.0000
     atom:    4    charge:   12.9339    magn:    3.6274    constr:    0.0000
     atom:    5    charge:   12.9373    magn:    3.6222    constr:    0.0000
     atom:    6    charge:    0.8378    magn:    0.0097    constr:    0.0000
     atom:    7    charge:    0.8278    magn:    0.0106    constr:    0.0000
     atom:    8    charge:    0.8378    magn:    0.0097    constr:    0.0000
     atom:    9    charge:    0.8278    magn:    0.0106    constr:    0.0000
     atom:   10    charge:    4.2301    magn:    0.1467    constr:    0.0000
     atom:   11    charge:    4.2531    magn:    0.1099    constr:    0.0000
     atom:   12    charge:    4.2301    magn:    0.1467    constr:    0.0000
     atom:   13    charge:    4.2532    magn:    0.1099    constr:    0.0000
     atom:   14    charge:    4.2317    magn:    0.1193    constr:    0.0000
     atom:   15    charge:    4.2472    magn:    0.0899    constr:    0.0000
     atom:   16    charge:    4.2317    magn:    0.1193    constr:    0.0000
     atom:   17    charge:    4.2473    magn:    0.0899    constr:    0.0000
     atom:   18    charge:    4.2387    magn:    0.1389    constr:    0.0000
     atom:   19    charge:    4.2268    magn:    0.1424    constr:    0.0000
     atom:   20    charge:    4.2329    magn:    0.1268    constr:    0.0000
     atom:   21    charge:    4.2376    magn:    0.1574    constr:    0.0000
     atom:   22    charge:    4.2387    magn:    0.1389    constr:    0.0000
     atom:   23    charge:    4.2268    magn:    0.1424    constr:    0.0000
     atom:   24    charge:    4.2329    magn:    0.1268    constr:    0.0000
     atom:   25    charge:    4.2376    magn:    0.1574    constr:    0.0000

     total cpu time spent up to now is    90750.4 secs

     End of self-consistent calculation

 ------ SPIN UP ------------


          k = 0.0000 0.0000 0.0000 ( 37649 PWs)   bands (ev):

   -85.4828 -85.4809 -85.4422 -85.4419 -51.6597 -51.6594 -51.5476 -51.5456
   -51.4879 -51.4861 -51.4069 -51.4051 -51.3835 -51.3833 -51.2742 -51.2738
   -45.6774 -17.8000 -17.6812 -17.6167 -16.3859 -16.1879 -16.1457 -15.9297
   -14.0752 -13.9854 -13.9593 -13.9021 -13.7770 -13.7557 -13.6563 -13.6192
   -13.6084 -13.5808 -13.5101 -13.4504  -4.5842  -4.2307  -3.8382  -3.7400
    -2.4673  -2.3918  -2.0036  -1.9589  -1.7013  -1.5696  -1.5441  -1.4086
    -1.3569  -1.2603  -1.1757  -1.0981  -0.4977  -0.4081  -0.1278   0.0531
     0.0574   0.1418   0.1999   0.2720   0.4758   0.5031   0.6392   0.7281
     0.9478   0.9966   1.0821   1.0937   1.2223   1.2824   1.4948   1.5639
     1.6522   1.7564   1.7599   1.8868   1.9752   2.0145   2.0664   2.0892
     2.2399   2.4589   2.4936   2.5256   2.6675   2.6981   2.7854   2.9262
     2.9592   3.1545   3.2296   3.2822   3.3835   3.4894   3.5513   3.6792
     3.7146   3.7396   3.8591   3.8836   3.9528   4.0415   4.4570   4.4588
     8.3815  10.2203  10.5523  11.1299  11.5626  12.4696  12.4804  12.6490
    12.6543  12.8125

     occupation numbers 
     1.0000   1.0000   1.0000   1.0000   1.0000   1.0000   1.0000   1.0000
     1.0000   1.0000   1.0000   1.0000   1.0000   1.0000   1.0000   1.0000
     1.0000   1.0000   1.0000   1.0000   1.0000   1.0000   1.0000   1.0000
     1.0000   1.0000   1.0000   1.0000   1.0000   1.0000   1.0000   1.0000
     1.0000   1.0000   1.0000   1.0000   1.0000   1.0000   1.0000   1.0000
     1.0000   1.0000   1.0000   1.0000   1.0000   1.0000   1.0000   1.0000
     1.0000   1.0000   1.0000   1.0000   1.0000   1.0000   1.0000   1.0000
     1.0000   1.0000   1.0000   1.0000   1.0000   1.0000   1.0000   1.0000
     1.0000   1.0000   1.0000   1.0000   1.0000   1.0000   1.0000   1.0000
     1.0000   1.0000   1.0000   1.0000   1.0000   1.0000   1.0000   1.0000
     1.0000   1.0000   1.0000   1.0000   1.0000   1.0000   1.0000   1.0000
     1.0000   1.0000   1.0000   1.0000   1.0000   1.0000   1.0000   1.0000
     1.0000   1.0000   1.0000   1.0000   1.0000   1.0000   1.0000   1.0000
     0.0000   0.0000   0.0000   0.0000   0.0000   0.0000   0.0000   0.0000
     0.0000   0.0000

          k = 0.0000 0.0000 0.2376 ( 37659 PWs)   bands (ev):

   -85.4828 -85.4809 -85.4422 -85.4419 -51.6597 -51.6594 -51.5476 -51.5456
   -51.4879 -51.4861 -51.4069 -51.4051 -51.3835 -51.3833 -51.2742 -51.2738
   -45.6774 -17.8000 -17.6812 -17.6168 -16.3705 -16.1827 -16.1349 -15.9310
   -14.0885 -14.0133 -13.9420 -13.8984 -13.7807 -13.7548 -13.6761 -13.6274
   -13.6057 -13.5789 -13.5195 -13.4510  -4.5538  -4.2184  -3.8545  -3.7090
    -2.4434  -2.3760  -2.0303  -1.9222  -1.6985  -1.5536  -1.5280  -1.4282
    -1.3168  -1.2825  -1.1988  -1.0793  -0.4818  -0.4038  -0.1299   0.0057
     0.0707   0.1352   0.2394   0.2607   0.4750   0.5268   0.6523   0.6845
     0.8650   1.0311   1.0706   1.1335   1.2011   1.3303   1.4863   1.5554
     1.6365   1.7299   1.8284   1.8752   1.9237   1.9578   2.0561   2.1528
     2.2290   2.4500   2.4946   2.5102   2.6523   2.6711   2.7929   2.8902
     2.9604   3.1545   3.2284   3.3007   3.3487   3.4869   3.5702   3.6289
     3.6948   3.7377   3.8503   3.9079   3.9494   4.0552   4.4505   4.4670
     8.5228  10.2790  10.6025  11.1514  11.6136  12.3166  12.5136  12.6493
    12.6570  12.7642

     occupation numbers 
     1.0000   1.0000   1.0000   1.0000   1.0000   1.0000   1.0000   1.0000
     1.0000   1.0000   1.0000   1.0000   1.0000   1.0000   1.0000   1.0000
     1.0000   1.0000   1.0000   1.0000   1.0000   1.0000   1.0000   1.0000
     1.0000   1.0000   1.0000   1.0000   1.0000   1.0000   1.0000   1.0000
     1.0000   1.0000   1.0000   1.0000   1.0000   1.0000   1.0000   1.0000
     1.0000   1.0000   1.0000   1.0000   1.0000   1.0000   1.0000   1.0000
     1.0000   1.0000   1.0000   1.0000   1.0000   1.0000   1.0000   1.0000
     1.0000   1.0000   1.0000   1.0000   1.0000   1.0000   1.0000   1.0000
     1.0000   1.0000   1.0000   1.0000   1.0000   1.0000   1.0000   1.0000
     1.0000   1.0000   1.0000   1.0000   1.0000   1.0000   1.0000   1.0000
     1.0000   1.0000   1.0000   1.0000   1.0000   1.0000   1.0000   1.0000
     1.0000   1.0000   1.0000   1.0000   1.0000   1.0000   1.0000   1.0000
     1.0000   1.0000   1.0000   1.0000   1.0000   1.0000   1.0000   1.0000
     0.0000   0.0000   0.0000   0.0000   0.0000   0.0000   0.0000   0.0000
     0.0000   0.0000

          k = 0.0000 0.0000 0.4753 ( 37654 PWs)   bands (ev):

   -85.4828 -85.4809 -85.4422 -85.4419 -51.6597 -51.6594 -51.5476 -51.5456
   -51.4879 -51.4861 -51.4069 -51.4051 -51.3835 -51.3833 -51.2742 -51.2738
   -45.6774 -17.8001 -17.6813 -17.6173 -16.3287 -16.1686 -16.1071 -15.9373
   -14.1237 -14.0592 -13.9234 -13.8932 -13.7884 -13.7618 -13.6984 -13.6441
   -13.6069 -13.5839 -13.5380 -13.4589  -4.4746  -4.1862  -3.8649  -3.6694
    -2.4083  -2.3123  -2.0196  -1.9018  -1.6934  -1.5390  -1.5017  -1.4010
    -1.3246  -1.2736  -1.2093  -1.0770  -0.4642  -0.3729  -0.1117  -0.0422
     0.0865   0.1249   0.2385   0.3180   0.4884   0.5551   0.5998   0.6825
     0.8194   1.0021   1.0632   1.1444   1.2175   1.3237   1.4857   1.5294
     1.5629   1.7201   1.7820   1.8607   1.8897   1.9714   2.0581   2.1485
     2.2445   2.3853   2.4470   2.4928   2.5461   2.6515   2.8311   2.8786
     2.9657   3.1552   3.2345   3.2720   3.3257   3.5082   3.5489   3.5932
     3.6692   3.7169   3.8194   3.9312   3.9642   4.0807   4.4444   4.4725
     8.8997  10.4267  10.7187  11.2142  11.7463  12.0143  12.4685  12.5777
    12.6222  12.7429

     occupation numbers 
     1.0000   1.0000   1.0000   1.0000   1.0000   1.0000   1.0000   1.0000
     1.0000   1.0000   1.0000   1.0000   1.0000   1.0000   1.0000   1.0000
     1.0000   1.0000   1.0000   1.0000   1.0000   1.0000   1.0000   1.0000
     1.0000   1.0000   1.0000   1.0000   1.0000   1.0000   1.0000   1.0000
     1.0000   1.0000   1.0000   1.0000   1.0000   1.0000   1.0000   1.0000
     1.0000   1.0000   1.0000   1.0000   1.0000   1.0000   1.0000   1.0000
     1.0000   1.0000   1.0000   1.0000   1.0000   1.0000   1.0000   1.0000
     1.0000   1.0000   1.0000   1.0000   1.0000   1.0000   1.0000   1.0000
     1.0000   1.0000   1.0000   1.0000   1.0000   1.0000   1.0000   1.0000
     1.0000   1.0000   1.0000   1.0000   1.0000   1.0000   1.0000   1.0000
     1.0000   1.0000   1.0000   1.0000   1.0000   1.0000   1.0000   1.0000
     1.0000   1.0000   1.0000   1.0000   1.0000   1.0000   1.0000   1.0000
     1.0000   1.0000   1.0000   1.0000   1.0000   1.0000   1.0000   1.0000
     0.0000   0.0000   0.0000   0.0000   0.0000   0.0000   0.0000   0.0000
     0.0000   0.0000

          k = 0.0000 0.0000 0.7129 ( 37702 PWs)   bands (ev):

   -85.4828 -85.4809 -85.4422 -85.4419 -51.6597 -51.6594 -51.5476 -51.5456
   -51.4879 -51.4861 -51.4069 -51.4051 -51.3835 -51.3833 -51.2742 -51.2738
   -45.6774 -17.8002 -17.6813 -17.6177 -16.2741 -16.1518 -16.0729 -15.9527
   -14.1648 -14.1061 -13.9094 -13.8941 -13.7992 -13.7874 -13.6799 -13.6676
   -13.6139 -13.5912 -13.5501 -13.4812  -4.3808  -4.1461  -3.8518  -3.6643
    -2.3791  -2.2326  -1.9553  -1.9043  -1.6999  -1.5326  -1.5169  -1.3708
    -1.3092  -1.2747  -1.1686  -1.1047  -0.4627  -0.3312  -0.0600   0.0221
     0.0599   0.1501   0.2601   0.3549   0.5348   0.5591   0.6143   0.6427
     0.8433   0.9480   1.0328   1.1001   1.2126   1.2354   1.3605   1.4688
     1.5747   1.6056   1.7724   1.8232   1.9263   2.0100   2.0550   2.0841
     2.2525   2.3042   2.3412   2.3731   2.5520   2.7145   2.8721   2.9059
     2.9874   3.1229   3.2033   3.2463   3.3381   3.5310   3.5654   3.5986
     3.6460   3.6885   3.7651   3.9151   3.9997   4.1111   4.4394   4.4704
     9.4103  10.5649  10.8377  11.2918  11.5503  12.0431  12.3524  12.4621
    12.5307  12.7251

     occupation numbers 
     1.0000   1.0000   1.0000   1.0000   1.0000   1.0000   1.0000   1.0000
     1.0000   1.0000   1.0000   1.0000   1.0000   1.0000   1.0000   1.0000
     1.0000   1.0000   1.0000   1.0000   1.0000   1.0000   1.0000   1.0000
     1.0000   1.0000   1.0000   1.0000   1.0000   1.0000   1.0000   1.0000
     1.0000   1.0000   1.0000   1.0000   1.0000   1.0000   1.0000   1.0000
     1.0000   1.0000   1.0000   1.0000   1.0000   1.0000   1.0000   1.0000
     1.0000   1.0000   1.0000   1.0000   1.0000   1.0000   1.0000   1.0000
     1.0000   1.0000   1.0000   1.0000   1.0000   1.0000   1.0000   1.0000
     1.0000   1.0000   1.0000   1.0000   1.0000   1.0000   1.0000   1.0000
     1.0000   1.0000   1.0000   1.0000   1.0000   1.0000   1.0000   1.0000
     1.0000   1.0000   1.0000   1.0000   1.0000   1.0000   1.0000   1.0000
     1.0000   1.0000   1.0000   1.0000   1.0000   1.0000   1.0000   1.0000
     1.0000   1.0000   1.0000   1.0000   1.0000   1.0000   1.0000   1.0000
     0.0000   0.0000   0.0000   0.0000   0.0000   0.0000   0.0000   0.0000
     0.0000   0.0000

          k = 0.0000 0.0000 0.9505 ( 37742 PWs)   bands (ev):

   -85.4828 -85.4809 -85.4422 -85.4419 -51.6597 -51.6594 -51.5476 -51.5456
   -51.4879 -51.4861 -51.4069 -51.4051 -51.3835 -51.3833 -51.2742 -51.2738
   -45.6774 -17.8003 -17.6813 -17.6180 -16.2317 -16.1411 -16.0456 -15.9732
   -14.1912 -14.1372 -13.9018 -13.8983 -13.8144 -13.7981 -13.6865 -13.6485
   -13.6228 -13.5942 -13.5481 -13.5125  -4.3175  -4.1174  -3.8238  -3.6893
    -2.3536  -2.1879  -1.9067  -1.8910  -1.7167  -1.5577  -1.5067  -1.3951
    -1.2936  -1.2479  -1.1455  -1.1155  -0.4646  -0.2996  -0.0371   0.0306
     0.1633   0.2028   0.3639   0.3707   0.5020   0.5624   0.6069   0.6913
     0.8518   0.8649   0.9571   1.0688   1.1043   1.1430   1.2756   1.5050
     1.5517   1.6012   1.7080   1.7959   1.9052   1.9600   2.0144   2.1344
     2.2185   2.2678   2.2993   2.3909   2.5360   2.7698   2.8638   2.9543
     3.0036   3.0574   3.1915   3.2392   3.4190   3.5271   3.5807   3.6035
     3.6271   3.6604   3.7235   3.9038   4.0159   4.1349   4.4363   4.4658
     9.9266  10.4898  10.9454  11.1854  11.4167  12.2523  12.2742  12.3730
    12.4687  12.6214

     occupation numbers 
     1.0000   1.0000   1.0000   1.0000   1.0000   1.0000   1.0000   1.0000
     1.0000   1.0000   1.0000   1.0000   1.0000   1.0000   1.0000   1.0000
     1.0000   1.0000   1.0000   1.0000   1.0000   1.0000   1.0000   1.0000
     1.0000   1.0000   1.0000   1.0000   1.0000   1.0000   1.0000   1.0000
     1.0000   1.0000   1.0000   1.0000   1.0000   1.0000   1.0000   1.0000
     1.0000   1.0000   1.0000   1.0000   1.0000   1.0000   1.0000   1.0000
     1.0000   1.0000   1.0000   1.0000   1.0000   1.0000   1.0000   1.0000
     1.0000   1.0000   1.0000   1.0000   1.0000   1.0000   1.0000   1.0000
     1.0000   1.0000   1.0000   1.0000   1.0000   1.0000   1.0000   1.0000
     1.0000   1.0000   1.0000   1.0000   1.0000   1.0000   1.0000   1.0000
     1.0000   1.0000   1.0000   1.0000   1.0000   1.0000   1.0000   1.0000
     1.0000   1.0000   1.0000   1.0000   1.0000   1.0000   1.0000   1.0000
     1.0000   1.0000   1.0000   1.0000   1.0000   1.0000   1.0000   1.0000
     0.0000   0.0000   0.0000   0.0000   0.0000   0.0000   0.0000   0.0000
     0.0000   0.0000

          k = 0.0000 0.2391 0.0000 ( 37676 PWs)   bands (ev):

   -85.4828 -85.4809 -85.4422 -85.4419 -51.6597 -51.6594 -51.5476 -51.5456
   -51.4879 -51.4861 -51.4069 -51.4051 -51.3835 -51.3833 -51.2742 -51.2738
   -45.6774 -17.8018 -17.6820 -17.6167 -16.3676 -16.1837 -16.1415 -15.9445
   -14.0908 -13.9786 -13.9677 -13.9013 -13.8131 -13.7425 -13.6606 -13.6099
   -13.6003 -13.5826 -13.5119 -13.4394  -4.5473  -4.1974  -3.8519  -3.7367
    -2.4482  -2.3585  -2.0037  -1.9416  -1.7086  -1.5813  -1.5407  -1.3824
    -1.3589  -1.2651  -1.1862  -1.0743  -0.5040  -0.4273  -0.1438  -0.0629
     0.1020   0.1246   0.2079   0.2391   0.4496   0.5202   0.6786   0.7341
     0.9428   0.9799   1.0394   1.1109   1.2602   1.2943   1.4683   1.5228
     1.6362   1.6829   1.8159   1.8610   1.9131   1.9853   2.0546   2.1630
     2.2640   2.4416   2.4639   2.4973   2.6499   2.7017   2.8191   2.9537
     2.9855   3.0789   3.2200   3.3356   3.3465   3.4529   3.5427   3.6258
     3.6909   3.7608   3.8309   3.8875   4.0491   4.1611   4.4556   4.4815
     8.5365  10.2911  10.6479  11.0474  11.5831  12.3126  12.4763  12.5932
    12.6533  12.7986

     occupation numbers 
     1.0000   1.0000   1.0000   1.0000   1.0000   1.0000   1.0000   1.0000
     1.0000   1.0000   1.0000   1.0000   1.0000   1.0000   1.0000   1.0000
     1.0000   1.0000   1.0000   1.0000   1.0000   1.0000   1.0000   1.0000
     1.0000   1.0000   1.0000   1.0000   1.0000   1.0000   1.0000   1.0000
     1.0000   1.0000   1.0000   1.0000   1.0000   1.0000   1.0000   1.0000
     1.0000   1.0000   1.0000   1.0000   1.0000   1.0000   1.0000   1.0000
     1.0000   1.0000   1.0000   1.0000   1.0000   1.0000   1.0000   1.0000
     1.0000   1.0000   1.0000   1.0000   1.0000   1.0000   1.0000   1.0000
     1.0000   1.0000   1.0000   1.0000   1.0000   1.0000   1.0000   1.0000
     1.0000   1.0000   1.0000   1.0000   1.0000   1.0000   1.0000   1.0000
     1.0000   1.0000   1.0000   1.0000   1.0000   1.0000   1.0000   1.0000
     1.0000   1.0000   1.0000   1.0000   1.0000   1.0000   1.0000   1.0000
     1.0000   1.0000   1.0000   1.0000   1.0000   1.0000   1.0000   1.0000
     0.0000   0.0000   0.0000   0.0000   0.0000   0.0000   0.0000   0.0000
     0.0000   0.0000

          k = 0.0000 0.2391 0.2376 ( 37671 PWs)   bands (ev):

   -85.4828 -85.4809 -85.4422 -85.4419 -51.6597 -51.6594 -51.5476 -51.5456
   -51.4879 -51.4861 -51.4069 -51.4051 -51.3835 -51.3833 -51.2742 -51.2738
   -45.6774 -17.8022 -17.6821 -17.6168 -16.3516 -16.1698 -16.1361 -15.9480
   -14.1020 -14.0146 -13.9471 -13.8927 -13.8223 -13.7528 -13.6545 -13.6322
   -13.6050 -13.5812 -13.5189 -13.4328  -4.5221  -4.1912  -3.8613  -3.6931
    -2.4275  -2.3426  -2.0449  -1.8921  -1.6942  -1.5633  -1.5257  -1.4231
    -1.3401  -1.2807  -1.2079  -1.0363  -0.4714  -0.4329  -0.1274  -0.0454
     0.0729   0.1315   0.2196   0.2881   0.4159   0.4977   0.6572   0.6985
     0.8126   0.9803   1.0360   1.1290   1.2345   1.3540   1.4844   1.5234
     1.6522   1.7530   1.7692   1.8552   1.9021   1.9830   2.0882   2.1768
     2.2500   2.4230   2.4486   2.5002   2.6308   2.6885   2.8022   2.8918
     2.9626   3.0724   3.2177   3.3220   3.3663   3.4688   3.5295   3.6011
     3.6883   3.7495   3.8597   3.8977   4.0560   4.1428   4.4476   4.4941
     8.6650  10.3525  10.6921  11.0632  11.6714  12.2594  12.4493  12.5780
    12.6757  12.7468

     occupation numbers 
     1.0000   1.0000   1.0000   1.0000   1.0000   1.0000   1.0000   1.0000
     1.0000   1.0000   1.0000   1.0000   1.0000   1.0000   1.0000   1.0000
     1.0000   1.0000   1.0000   1.0000   1.0000   1.0000   1.0000   1.0000
     1.0000   1.0000   1.0000   1.0000   1.0000   1.0000   1.0000   1.0000
     1.0000   1.0000   1.0000   1.0000   1.0000   1.0000   1.0000   1.0000
     1.0000   1.0000   1.0000   1.0000   1.0000   1.0000   1.0000   1.0000
     1.0000   1.0000   1.0000   1.0000   1.0000   1.0000   1.0000   1.0000
     1.0000   1.0000   1.0000   1.0000   1.0000   1.0000   1.0000   1.0000
     1.0000   1.0000   1.0000   1.0000   1.0000   1.0000   1.0000   1.0000
     1.0000   1.0000   1.0000   1.0000   1.0000   1.0000   1.0000   1.0000
     1.0000   1.0000   1.0000   1.0000   1.0000   1.0000   1.0000   1.0000
     1.0000   1.0000   1.0000   1.0000   1.0000   1.0000   1.0000   1.0000
     1.0000   1.0000   1.0000   1.0000   1.0000   1.0000   1.0000   1.0000
     0.0000   0.0000   0.0000   0.0000   0.0000   0.0000   0.0000   0.0000
     0.0000   0.0000

          k = 0.0000 0.2391 0.4753 ( 37686 PWs)   bands (ev):

   -85.4828 -85.4809 -85.4422 -85.4419 -51.6597 -51.6594 -51.5476 -51.5456
   -51.4879 -51.4861 -51.4069 -51.4051 -51.3835 -51.3833 -51.2742 -51.2738
   -45.6774 -17.8023 -17.6821 -17.6172 -16.3110 -16.1489 -16.1125 -15.9549
   -14.1330 -14.0565 -13.9370 -13.8929 -13.8219 -13.7699 -13.6868 -13.6418
   -13.6021 -13.5820 -13.5349 -13.4423  -4.4473  -4.1638  -3.8612  -3.6417
    -2.3905  -2.3013  -2.0231  -1.8767  -1.6854  -1.5553  -1.4715  -1.4375
    -1.3128  -1.2914  -1.2129  -1.0355  -0.4787  -0.3906  -0.0991  -0.0198
     0.0465   0.1400   0.2548   0.3011   0.4397   0.4725   0.6045   0.7033
     0.7316   0.9535   1.0115   1.1481   1.2006   1.3478   1.4593   1.5179
     1.6349   1.7214   1.8090   1.8371   1.9257   1.9761   2.1064   2.1721
     2.2188   2.3347   2.4368   2.4638   2.5610   2.6398   2.8120   2.8424
     2.9604   3.0762   3.2437   3.2478   3.3932   3.4673   3.5250   3.5893
     3.6566   3.7467   3.8433   3.9560   4.0585   4.1210   4.4449   4.5025
     9.0192  10.5035  10.7937  11.1375  11.8189  12.0608  12.4212  12.4953
    12.6133  12.7236

     occupation numbers 
     1.0000   1.0000   1.0000   1.0000   1.0000   1.0000   1.0000   1.0000
     1.0000   1.0000   1.0000   1.0000   1.0000   1.0000   1.0000   1.0000
     1.0000   1.0000   1.0000   1.0000   1.0000   1.0000   1.0000   1.0000
     1.0000   1.0000   1.0000   1.0000   1.0000   1.0000   1.0000   1.0000
     1.0000   1.0000   1.0000   1.0000   1.0000   1.0000   1.0000   1.0000
     1.0000   1.0000   1.0000   1.0000   1.0000   1.0000   1.0000   1.0000
     1.0000   1.0000   1.0000   1.0000   1.0000   1.0000   1.0000   1.0000
     1.0000   1.0000   1.0000   1.0000   1.0000   1.0000   1.0000   1.0000
     1.0000   1.0000   1.0000   1.0000   1.0000   1.0000   1.0000   1.0000
     1.0000   1.0000   1.0000   1.0000   1.0000   1.0000   1.0000   1.0000
     1.0000   1.0000   1.0000   1.0000   1.0000   1.0000   1.0000   1.0000
     1.0000   1.0000   1.0000   1.0000   1.0000   1.0000   1.0000   1.0000
     1.0000   1.0000   1.0000   1.0000   1.0000   1.0000   1.0000   1.0000
     0.0000   0.0000   0.0000   0.0000   0.0000   0.0000   0.0000   0.0000
     0.0000   0.0000

          k = 0.0000 0.2391 0.7129 ( 37698 PWs)   bands (ev):

   -85.4828 -85.4809 -85.4422 -85.4419 -51.6597 -51.6594 -51.5476 -51.5456
   -51.4879 -51.4861 -51.4069 -51.4051 -51.3835 -51.3833 -51.2742 -51.2738
   -45.6774 -17.8021 -17.6820 -17.6177 -16.2594 -16.1295 -16.0795 -15.9688
   -14.1706 -14.1007 -13.9297 -13.9024 -13.8222 -13.7875 -13.6951 -13.6552
   -13.5999 -13.5864 -13.5475 -13.4695  -4.3542  -4.1255  -3.8440  -3.6271
    -2.3691  -2.2334  -1.9517  -1.8798  -1.6918  -1.5668  -1.4802  -1.4039
    -1.2912  -1.2636  -1.1800  -1.0802  -0.4917  -0.3532  -0.0597   0.0614
     0.0712   0.1579   0.2336   0.2994   0.4959   0.5070   0.5875   0.6888
     0.7743   0.8998   0.9798   1.0862   1.2074   1.2777   1.3267   1.5087
     1.5546   1.6478   1.7710   1.8830   1.9281   2.0299   2.0445   2.0910
     2.2346   2.2814   2.3303   2.4308   2.4959   2.6884   2.8301   2.8765
     2.9624   3.0894   3.1729   3.2795   3.3649   3.4629   3.5338   3.5957
     3.6598   3.7389   3.8048   3.9976   4.0366   4.1366   4.4412   4.5044
     9.5028  10.6684  10.8671  11.2562  11.5999  12.1302  12.3704  12.4283
    12.4691  12.7696

     occupation numbers 
     1.0000   1.0000   1.0000   1.0000   1.0000   1.0000   1.0000   1.0000
     1.0000   1.0000   1.0000   1.0000   1.0000   1.0000   1.0000   1.0000
     1.0000   1.0000   1.0000   1.0000   1.0000   1.0000   1.0000   1.0000
     1.0000   1.0000   1.0000   1.0000   1.0000   1.0000   1.0000   1.0000
     1.0000   1.0000   1.0000   1.0000   1.0000   1.0000   1.0000   1.0000
     1.0000   1.0000   1.0000   1.0000   1.0000   1.0000   1.0000   1.0000
     1.0000   1.0000   1.0000   1.0000   1.0000   1.0000   1.0000   1.0000
     1.0000   1.0000   1.0000   1.0000   1.0000   1.0000   1.0000   1.0000
     1.0000   1.0000   1.0000   1.0000   1.0000   1.0000   1.0000   1.0000
     1.0000   1.0000   1.0000   1.0000   1.0000   1.0000   1.0000   1.0000
     1.0000   1.0000   1.0000   1.0000   1.0000   1.0000   1.0000   1.0000
     1.0000   1.0000   1.0000   1.0000   1.0000   1.0000   1.0000   1.0000
     1.0000   1.0000   1.0000   1.0000   1.0000   1.0000   1.0000   1.0000
     0.0000   0.0000   0.0000   0.0000   0.0000   0.0000   0.0000   0.0000
     0.0000   0.0000

          k = 0.0000 0.2391 0.9505 ( 37713 PWs)   bands (ev):

   -85.4828 -85.4809 -85.4422 -85.4419 -51.6597 -51.6594 -51.5476 -51.5456
   -51.4879 -51.4861 -51.4069 -51.4051 -51.3835 -51.3833 -51.2742 -51.2738
   -45.6774 -17.8016 -17.6819 -17.6180 -16.2197 -16.1240 -16.0512 -15.9834
   -14.1960 -14.1316 -13.9213 -13.9066 -13.8300 -13.8026 -13.6900 -13.6520
   -13.6004 -13.5905 -13.5487 -13.5054  -4.2837  -4.0918  -3.8216  -3.6583
    -2.3433  -2.1882  -1.8984  -1.8739  -1.7095  -1.5790  -1.4944  -1.4103
    -1.2851  -1.2259  -1.1370  -1.1115  -0.5032  -0.3284  -0.0432   0.0692
     0.1261   0.1925   0.2626   0.3615   0.5226   0.5654   0.6156   0.6702
     0.8291   0.8478   0.9328   1.0352   1.1165   1.1644   1.2848   1.5123
     1.5400   1.6081   1.7036   1.7722   1.9348   1.9880   2.0243   2.0935
     2.2234   2.2563   2.3343   2.3804   2.5015   2.7530   2.8667   2.9089
     2.9273   3.0569   3.1812   3.2892   3.3521   3.4920   3.5360   3.6102
     3.6397   3.7233   3.7742   3.9897   4.0263   4.1779   4.4377   4.5028
     9.9857  10.6245  10.9241  11.3107  11.3739  12.2511  12.2773  12.3604
    12.4920  12.6875

     occupation numbers 
     1.0000   1.0000   1.0000   1.0000   1.0000   1.0000   1.0000   1.0000
     1.0000   1.0000   1.0000   1.0000   1.0000   1.0000   1.0000   1.0000
     1.0000   1.0000   1.0000   1.0000   1.0000   1.0000   1.0000   1.0000
     1.0000   1.0000   1.0000   1.0000   1.0000   1.0000   1.0000   1.0000
     1.0000   1.0000   1.0000   1.0000   1.0000   1.0000   1.0000   1.0000
     1.0000   1.0000   1.0000   1.0000   1.0000   1.0000   1.0000   1.0000
     1.0000   1.0000   1.0000   1.0000   1.0000   1.0000   1.0000   1.0000
     1.0000   1.0000   1.0000   1.0000   1.0000   1.0000   1.0000   1.0000
     1.0000   1.0000   1.0000   1.0000   1.0000   1.0000   1.0000   1.0000
     1.0000   1.0000   1.0000   1.0000   1.0000   1.0000   1.0000   1.0000
     1.0000   1.0000   1.0000   1.0000   1.0000   1.0000   1.0000   1.0000
     1.0000   1.0000   1.0000   1.0000   1.0000   1.0000   1.0000   1.0000
     1.0000   1.0000   1.0000   1.0000   1.0000   1.0000   1.0000   1.0000
     0.0000   0.0000   0.0000   0.0000   0.0000   0.0000   0.0000   0.0000
     0.0000   0.0000

          k = 0.0000 0.4781 0.0000 ( 37720 PWs)   bands (ev):

   -85.4828 -85.4809 -85.4422 -85.4419 -51.6597 -51.6594 -51.5476 -51.5456
   -51.4879 -51.4861 -51.4069 -51.4051 -51.3835 -51.3833 -51.2742 -51.2738
   -45.6774 -17.8059 -17.6835 -17.6166 -16.3195 -16.1775 -16.1297 -15.9834
   -14.1190 -13.9943 -13.9575 -13.9147 -13.8438 -13.7547 -13.6528 -13.6059
   -13.5966 -13.5713 -13.5122 -13.4187  -4.4595  -4.1194  -3.8823  -3.7391
    -2.3891  -2.2666  -1.9991  -1.9069  -1.7272  -1.6144  -1.5210  -1.3672
    -1.3460  -1.2633  -1.1873  -1.0500  -0.5587  -0.4569  -0.2286  -0.1518
     0.0451   0.1100   0.1401   0.2751   0.3852   0.5179   0.7085   0.7804
     0.9262   0.9829   1.0336   1.0962   1.3038   1.3473   1.3772   1.4920
     1.6248   1.6613   1.7732   1.7911   1.8601   2.0055   2.0420   2.2302
     2.2898   2.3625   2.4395   2.4840   2.6044   2.6496   2.8359   2.9422
     2.9730   3.0566   3.2299   3.2893   3.3408   3.4701   3.5340   3.5772
     3.7049   3.7689   3.7906   3.8783   4.2114   4.3172   4.4690   4.5352
     8.9559  10.4549  10.7280  10.9613  11.5055  12.1788  12.3543  12.5204
    12.6678  12.7908

     occupation numbers 
     1.0000   1.0000   1.0000   1.0000   1.0000   1.0000   1.0000   1.0000
     1.0000   1.0000   1.0000   1.0000   1.0000   1.0000   1.0000   1.0000
     1.0000   1.0000   1.0000   1.0000   1.0000   1.0000   1.0000   1.0000
     1.0000   1.0000   1.0000   1.0000   1.0000   1.0000   1.0000   1.0000
     1.0000   1.0000   1.0000   1.0000   1.0000   1.0000   1.0000   1.0000
     1.0000   1.0000   1.0000   1.0000   1.0000   1.0000   1.0000   1.0000
     1.0000   1.0000   1.0000   1.0000   1.0000   1.0000   1.0000   1.0000
     1.0000   1.0000   1.0000   1.0000   1.0000   1.0000   1.0000   1.0000
     1.0000   1.0000   1.0000   1.0000   1.0000   1.0000   1.0000   1.0000
     1.0000   1.0000   1.0000   1.0000   1.0000   1.0000   1.0000   1.0000
     1.0000   1.0000   1.0000   1.0000   1.0000   1.0000   1.0000   1.0000
     1.0000   1.0000   1.0000   1.0000   1.0000   1.0000   1.0000   1.0000
     1.0000   1.0000   1.0000   1.0000   1.0000   1.0000   1.0000   1.0000
     0.0000   0.0000   0.0000   0.0000   0.0000   0.0000   0.0000   0.0000
     0.0000   0.0000

          k = 0.0000 0.4781 0.2376 ( 37687 PWs)   bands (ev):

   -85.4828 -85.4809 -85.4422 -85.4419 -51.6597 -51.6594 -51.5476 -51.5456
   -51.4879 -51.4861 -51.4069 -51.4051 -51.3835 -51.3833 -51.2742 -51.2738
   -45.6774 -17.8062 -17.6836 -17.6168 -16.3046 -16.1606 -16.1251 -15.9877
   -14.1267 -14.0214 -13.9447 -13.9035 -13.8632 -13.7644 -13.6486 -13.6299
   -13.5965 -13.5687 -13.5166 -13.4157  -4.4373  -4.1154  -3.8807  -3.6934
    -2.3691  -2.2467  -2.0488  -1.8590  -1.7160  -1.6161  -1.4966  -1.3881
[...]
     atom    6 type  4   force =    -0.02167664    0.04329472    0.03026463
     atom    7 type  4   force =    -0.01930306    0.01804453   -0.09426565
     atom    8 type  4   force =     0.02167664   -0.04329472   -0.03026463
     atom    9 type  4   force =     0.01930306   -0.01804453    0.09426565
     atom   10 type  3   force =    -0.54061247   -0.29340140   -1.05135065
     atom   11 type  3   force =    -0.03825045    0.23969575   -1.49347546
     atom   12 type  3   force =     0.54061247    0.29340140    1.05135065
     atom   13 type  3   force =     0.03825045   -0.23969575    1.49347546
     atom   14 type  3   force =     1.39554992   -0.23641442   -0.63721574
     atom   15 type  3   force =    -1.35857586    0.28301239   -0.17083878
     atom   16 type  3   force =    -1.39554992    0.23641442    0.63721574
     atom   17 type  3   force =     1.35857586   -0.28301239    0.17083878
     atom   18 type  3   force =    -0.05658560   -1.39681132    0.80725985
     atom   19 type  3   force =     0.64181991    0.70557413    0.89811035
     atom   20 type  3   force =     0.01895045   -1.65249419   -0.96437480
     atom   21 type  3   force =    -0.08188675    1.03875482   -0.54718785
     atom   22 type  3   force =     0.05658560    1.39681132   -0.80725985
     atom   23 type  3   force =    -0.64181991   -0.70557413   -0.89811035
     atom   24 type  3   force =    -0.01895045    1.65249419    0.96437480
     atom   25 type  3   force =     0.08188675   -1.03875482    0.54718785
     The ionic contribution  to forces
     atom    1 type  2   force =     0.00055880    0.00043659    0.00017933
     atom    2 type  1   force =     9.18907475    5.46265528   -1.94010321
     atom    3 type  1   force =     4.25893709   -9.63588026   -2.39784465
     atom    4 type  1   force =    -9.18948086   -5.46260013    1.93995637
     atom    5 type  1   force =    -4.25934222    9.63555373    2.39791612
     atom    6 type  4   force =    -1.80106600    2.04222406   -2.08339580
     atom    7 type  4   force =     3.54256964   -0.97922182    0.94245636
     atom    8 type  4   force =     1.80112544   -2.04220626    2.08323124
     atom    9 type  4   force =    -3.54268687    0.97920874   -0.94234244
     atom   10 type  3   force =    -0.42578823    6.48919445    0.14438940
     atom   11 type  3   force =     7.29476354   -4.00537733    2.36061654
     atom   12 type  3   force =     0.42608467   -6.48897479   -0.14401712
     atom   13 type  3   force =    -7.29480461    4.00533494   -2.36079562
     atom   14 type  3   force =     0.50667175    1.47451999    7.30928484
     atom   15 type  3   force =     0.26472899   -3.11887926    4.79693633
     atom   16 type  3   force =    -0.50685730   -1.47451635   -7.30925205
     atom   17 type  3   force =    -0.26429096    3.11854825   -4.79728929
     atom   18 type  3   force =    -5.80474564    8.54388317    0.47755530
     atom   19 type  3   force =     2.39861820   -1.46788766   -3.27700134
     atom   20 type  3   force =     4.37073906    6.16325568    8.66405018
     atom   21 type  3   force =    -9.06953736   -0.94093487   -0.43401032
     atom   22 type  3   force =     5.80481925   -8.54389056   -0.47751701
     atom   23 type  3   force =    -2.39883651    1.46784638    3.27699748
     atom   24 type  3   force =    -4.37063928   -6.16326393   -8.66403413
     atom   25 type  3   force =     9.06938467    0.94097195    0.43403347
     The local contribution  to forces
     atom    1 type  2   force =     0.00335367    0.00008784   -0.00246174
     atom    2 type  1   force =    -9.27196649   -5.36121159    2.12312606
     atom    3 type  1   force =    -4.21039216    9.77946259    2.26021122
     atom    4 type  1   force =     9.24925791    5.35033251   -2.13176904
     atom    5 type  1   force =     4.18752878   -9.79161604   -2.27043517
     atom    6 type  4   force =     1.81187098   -2.09009008    2.05233338
     atom    7 type  4   force =    -3.51012346    0.96032760   -0.87148681
     atom    8 type  4   force =    -1.81192459    2.08986576   -2.05255394
     atom    9 type  4   force =     3.51028151   -0.96051210    0.87164669
     atom   10 type  3   force =     0.95670195   -6.20740804    0.89022140
     atom   11 type  3   force =    -7.26435982    3.76991845   -0.88150782
     atom   12 type  3   force =    -0.96090281    6.20498902   -0.89060506
     atom   13 type  3   force =     7.25883961   -3.77286546    0.87851451
     atom   14 type  3   force =    -1.85949969   -1.24554464   -6.68759134
     atom   15 type  3   force =     1.04725933    2.84232085   -4.62780861
     atom   16 type  3   force =     1.85564242    1.24282297    6.68556849
     atom   17 type  3   force =    -1.05087531   -2.84483057    4.62545763
     atom   18 type  3   force =     5.85539393   -7.18054785   -1.27407495
     atom   19 type  3   force =    -3.02779720    0.78128061    2.39709142
     atom   20 type  3   force =    -4.39066035   -4.55866761   -7.72162373
     atom   21 type  3   force =     9.14791046   -0.07134056    0.97177847
     atom   22 type  3   force =    -5.86054664    7.17785990    1.27097745
     atom   23 type  3   force =     3.02248838   -0.78328893   -2.39942637
     atom   24 type  3   force =     4.38554779    4.55642415    7.72012390
     atom   25 type  3   force =    -9.15300279    0.06911089   -0.97356267
     The core correction contribution to forces
     atom    1 type  2   force =     0.00000000    0.00000000    0.00000000
     atom    2 type  1   force =    -0.00200803    0.00093371    0.00086442
     atom    3 type  1   force =     0.00179686   -0.00025847    0.00034720
     atom    4 type  1   force =     0.00277008   -0.00053984   -0.00054990
     atom    5 type  1   force =    -0.00101896    0.00063442    0.00001327
     atom    6 type  4   force =     0.00268126   -0.00208921   -0.00108226
     atom    7 type  4   force =     0.00084415   -0.00113381    0.00678361
     atom    8 type  4   force =    -0.00266592    0.00209697    0.00109160
     atom    9 type  4   force =    -0.00082699    0.00113965   -0.00677851
     atom   10 type  3   force =     0.00448926    0.00266244    0.00923946
     atom   11 type  3   force =     0.00114474   -0.00247904    0.01302023
     atom   12 type  3   force =    -0.00449394   -0.00266463   -0.00924374
     atom   13 type  3   force =    -0.00114763    0.00247705   -0.01302251
     atom   14 type  3   force =    -0.01242549    0.00223638    0.00638164
     atom   15 type  3   force =     0.01191690   -0.00277040    0.00203184
     atom   16 type  3   force =     0.01241688   -0.00223727   -0.00638352
     atom   17 type  3   force =    -0.01192340    0.00276953   -0.00203212
     atom   18 type  3   force =    -0.00004159    0.01300541   -0.00704250
     atom   19 type  3   force =    -0.00579174   -0.00606809   -0.00831329
     atom   20 type  3   force =     0.00002709    0.01497533    0.00924038
     atom   21 type  3   force =     0.00060340   -0.00933448    0.00509602
     atom   22 type  3   force =     0.00003717   -0.01300821    0.00704323
     atom   23 type  3   force =     0.00578556    0.00606309    0.00830795
     atom   24 type  3   force =    -0.00003084   -0.01497687   -0.00924337
     atom   25 type  3   force =    -0.00060740    0.00933327   -0.00509938
     The Hubbard contrib.    to forces
     atom    1 type  2   force =     0.00000000    0.00000000    0.00000000
     atom    2 type  1   force =     0.00000000    0.00000000    0.00000000
     atom    3 type  1   force =     0.00000000    0.00000000    0.00000000
     atom    4 type  1   force =     0.00000000    0.00000000    0.00000000
     atom    5 type  1   force =     0.00000000    0.00000000    0.00000000
     atom    6 type  4   force =     0.00000000    0.00000000    0.00000000
     atom    7 type  4   force =     0.00000000    0.00000000    0.00000000
     atom    8 type  4   force =     0.00000000    0.00000000    0.00000000
     atom    9 type  4   force =     0.00000000    0.00000000    0.00000000
     atom   10 type  3   force =     0.00000000    0.00000000    0.00000000
     atom   11 type  3   force =     0.00000000    0.00000000    0.00000000
     atom   12 type  3   force =     0.00000000    0.00000000    0.00000000
     atom   13 type  3   force =     0.00000000    0.00000000    0.00000000
     atom   14 type  3   force =     0.00000000    0.00000000    0.00000000
     atom   15 type  3   force =     0.00000000    0.00000000    0.00000000
     atom   16 type  3   force =     0.00000000    0.00000000    0.00000000
     atom   17 type  3   force =     0.00000000    0.00000000    0.00000000
     atom   18 type  3   force =     0.00000000    0.00000000    0.00000000
     atom   19 type  3   force =     0.00000000    0.00000000    0.00000000
     atom   20 type  3   force =     0.00000000    0.00000000    0.00000000
     atom   21 type  3   force =     0.00000000    0.00000000    0.00000000
     atom   22 type  3   force =     0.00000000    0.00000000    0.00000000
     atom   23 type  3   force =     0.00000000    0.00000000    0.00000000
     atom   24 type  3   force =     0.00000000    0.00000000    0.00000000
     atom   25 type  3   force =     0.00000000    0.00000000    0.00000000
     The SCF correction term to forces
     atom    1 type  2   force =     0.00000000    0.00000000   -0.00000000
     atom    2 type  1   force =     0.00000097   -0.00000065   -0.00000108
     atom    3 type  1   force =    -0.00000254    0.00000074    0.00000066
     atom    4 type  1   force =    -0.00000100    0.00000063    0.00000106
     atom    5 type  1   force =     0.00000251   -0.00000075   -0.00000067
     atom    6 type  4   force =     0.00000033    0.00000040   -0.00000022
     atom    7 type  4   force =     0.00000027   -0.00000038    0.00000030
     atom    8 type  4   force =    -0.00000033   -0.00000040    0.00000022
     atom    9 type  4   force =    -0.00000027    0.00000038   -0.00000030
     atom   10 type  3   force =     0.00000126    0.00000135    0.00000157
     atom   11 type  3   force =     0.00000086   -0.00000035   -0.00000235
     atom   12 type  3   force =    -0.00000126   -0.00000135   -0.00000157
     atom   13 type  3   force =    -0.00000086    0.00000034    0.00000235
     atom   14 type  3   force =    -0.00000262    0.00000007   -0.00000164
     atom   15 type  3   force =    -0.00000073   -0.00000013    0.00000050
     atom   16 type  3   force =     0.00000262   -0.00000008    0.00000164
     atom   17 type  3   force =     0.00000073    0.00000013   -0.00000050
     atom   18 type  3   force =     0.00000236    0.00000039   -0.00000178
     atom   19 type  3   force =    -0.00000040   -0.00000427    0.00000173
     atom   20 type  3   force =     0.00000058   -0.00000022    0.00000103
     atom   21 type  3   force =     0.00000053   -0.00000389   -0.00000121
     atom   22 type  3   force =    -0.00000236   -0.00000039    0.00000178
     atom   23 type  3   force =     0.00000040    0.00000427   -0.00000173
     atom   24 type  3   force =    -0.00000058    0.00000022   -0.00000103
     atom   25 type  3   force =    -0.00000053    0.00000389    0.00000121

     Total force =     0.103545     Total SCF correction =     0.000013


     Computing stress (Cartesian axis) and pressure


     negative rho (up, down):  0.000E+00 8.712E-04
          total   stress  (Ry/bohr**3)                   (kbar)     P=      -31.97
  -0.00062523   0.00013443  -0.00005955          -91.97       19.78       -8.76
   0.00013443  -0.00003968   0.00002546           19.78       -5.84        3.75
  -0.00005955   0.00002546   0.00001299           -8.76        3.75        1.91

     kinetic stress (kbar)  25495.76     92.46    -49.84
                               92.46  25640.62      4.76
                              -49.84      4.76  25703.18

     local   stress (kbar)  -8408.52   3613.25  -7759.95
                             3613.25 -13823.62  -1459.55
                            -7759.95  -1459.55  -5801.97

     nonloc. stress (kbar)  -6510.24      5.02    -10.24
                                5.02  -6478.32     -9.78
                              -10.24     -9.78  -6489.35

     hartree stress (kbar)  14120.83  -1350.80   3273.34
                            -1350.80  16921.43    642.27
                             3273.34    642.27  13507.74

     exc-cor stress (kbar)  -2704.23     -3.11      3.48
                               -3.11  -2707.74     -0.02
                                3.48     -0.02  -2708.25

     corecor stress (kbar)  -3012.70      0.17     -0.31
                                0.17  -3013.53      0.90
                               -0.31      0.90  -3013.50

     ewald   stress (kbar) -19072.88  -2337.21   4534.76
                            -2337.21 -16544.67    825.17
                             4534.76    825.17 -21195.94

     hubbard stress (kbar)      0.00      0.00      0.00
                                0.00      0.00      0.00
                                0.00      0.00      0.00

     DFT-D   stress (kbar)      0.00      0.00      0.00
                                0.00      0.00      0.00
                                0.00      0.00      0.00

     XDM     stress (kbar)      0.00      0.00      0.00
                                0.00      0.00      0.00
                                0.00      0.00      0.00

     dft-nl  stress (kbar)      0.00      0.00      0.00
                                0.00      0.00      0.00
                                0.00      0.00      0.00

     TS-vdW  stress (kbar)      0.00      0.00      0.00
                                0.00      0.00      0.00
                                0.00      0.00      0.00



     init_run     :   1151.21s CPU   1329.07s WALL (       1 calls)
     electrons    :  77885.34s CPU  89395.65s WALL (       1 calls)
     forces       :    147.91s CPU    167.33s WALL (       1 calls)
     stress       :    668.61s CPU    765.44s WALL (       1 calls)

     Called by init_run:
     wfcinit      :   1135.47s CPU   1311.10s WALL (       1 calls)
     wfcinit:atom :      0.63s CPU      0.68s WALL (     316 calls)
     wfcinit:wfcr :   1130.44s CPU   1305.31s WALL (     316 calls)
     potinit      :      6.87s CPU      7.79s WALL (       1 calls)
     hinit0       :      5.17s CPU      5.66s WALL (       1 calls)

     Called by electrons:
     c_bands      :  65346.03s CPU  74973.22s WALL (      28 calls)
     sum_band     :  12332.65s CPU  14184.90s WALL (      28 calls)
     v_of_rho     :     74.32s CPU     86.41s WALL (      29 calls)
     v_h          :      6.95s CPU      7.96s WALL (      29 calls)
     v_xc         :     72.01s CPU     83.96s WALL (      31 calls)
     newd         :     48.14s CPU     56.29s WALL (      29 calls)
     PAW_pot      :     16.92s CPU     19.26s WALL (      29 calls)
     mix_rho      :     56.28s CPU     62.71s WALL (      28 calls)

     Called by c_bands:
     init_us_2    :     50.61s CPU     54.80s WALL (   18644 calls)
     cegterg      :  64668.95s CPU  74161.34s WALL (    8848 calls)

     Called by sum_band:
     sum_band:wei :      0.51s CPU      0.61s WALL (      28 calls)
     sum_band:loo :  12244.67s CPU  14080.11s WALL (      28 calls)
     sum_band:buf :     12.08s CPU     12.61s WALL (    8848 calls)
     sum_band:ini :     19.94s CPU     20.80s WALL (    8848 calls)
     sum_band:cal :    830.75s CPU    964.44s WALL (    8848 calls)
     sum_band:bec :      2.04s CPU      2.04s WALL (    8848 calls)
     addusdens    :     61.13s CPU     74.41s WALL (      28 calls)
     addusd:skk   :      0.57s CPU      0.61s WALL (      84 calls)
     addusd:dgemm :      4.76s CPU      7.78s WALL (     168 calls)
     addusd:qvan2 :     55.01s CPU     65.02s WALL (     168 calls)

     Called by *egterg:
     cdiaghg      :   1197.77s CPU   1401.01s WALL (   35864 calls)
     cegterg:over :   3991.00s CPU   4575.50s WALL (   27016 calls)
     cegterg:upda :    157.09s CPU    171.32s WALL (   27016 calls)
     cegterg:last :    329.64s CPU    375.36s WALL (   16117 calls)
     h_psi        :  56764.03s CPU  65095.06s WALL (   36180 calls)
     s_psi        :    310.10s CPU    364.05s WALL (   36180 calls)
     g_psi        :     16.21s CPU     20.72s WALL (   27016 calls)

     Called by h_psi:
     h_psi:calbec :   2898.90s CPU   3343.25s WALL (   36180 calls)
     vloc_psi     :  53500.55s CPU  61329.17s WALL (   36180 calls)
     add_vuspsi   :    329.06s CPU    383.04s WALL (   36180 calls)

     General routines
     calbec       :   3983.79s CPU   4594.36s WALL (   46608 calls)
     fft          :    108.60s CPU    125.47s WALL (     763 calls)
     ffts         :      1.78s CPU      2.06s WALL (     114 calls)
     fftw         :  64250.75s CPU  73769.95s WALL ( 5747232 calls)
     interpolate  :      8.89s CPU     10.22s WALL (      58 calls)

     Parallel routines
     fft_scatt_xy :    300.14s CPU    305.75s WALL ( 5748109 calls)
     fft_scatt_yz :  63143.74s CPU  72662.87s WALL ( 5748109 calls)

     PAW routines
     PAW_pot      :     16.92s CPU     19.26s WALL (      29 calls)
     PAW_symme    :      4.99s CPU      5.75s WALL (      57 calls)

     PWSCF        :     22h11m CPU   1d 1h28m WALL


   This run was terminated on:  13:21:40  28Jan2023            

=------------------------------------------------------------------------------=
   JOB DONE.
=------------------------------------------------------------------------------=
Note: The following floating-point exceptions are signalling: IEEE_DENORMAL
Note: The following floating-point exceptions are signalling: IEEE_DENORMAL
Note: The following floating-point exceptions are signalling: IEEE_DENORMAL
Note: The following floating-point exceptions are signalling: IEEE_DENORMAL
Note: The following floating-point exceptions are signalling: IEEE_DENORMAL
Note: The following floating-point exceptions are signalling: IEEE_DENORMAL
Note: The following floating-point exceptions are signalling: IEEE_DENORMAL
Note: The following floating-point exceptions are signalling: IEEE_DENORMAL
Note: The following floating-point exceptions are signalling: IEEE_INVALID_FLAG IEEE_DENORMAL
Note: The following floating-point exceptions are signalling: IEEE_INVALID_FLAG IEEE_DENORMAL
Note: The following floating-point exceptions are signalling: IEEE_DENORMAL
Note: The following floating-point exceptions are signalling: IEEE_DENORMAL
Note: The following floating-point exceptions are signalling: IEEE_DENORMAL
Note: The following floating-point exceptions are signalling: IEEE_DENORMAL
Note: The following floating-point exceptions are signalling: IEEE_DENORMAL
Note: The following floating-point exceptions are signalling: IEEE_DENORMAL
Note: The following floating-point exceptions are signalling: IEEE_UNDERFLOW_FLAG IEEE_DENORMAL
Note: The following floating-point exceptions are signalling: IEEE_DENORMAL
Note: The following floating-point exceptions are signalling: IEEE_INVALID_FLAG IEEE_DENORMAL
Note: The following floating-point exceptions are signalling: IEEE_DENORMAL
Note: The following floating-point exceptions are signalling: IEEE_DENORMAL
Note: The following floating-point exceptions are signalling: IEEE_DENORMAL
Note: The following floating-point exceptions are signalling: IEEE_DENORMAL
Note: The following floating-point exceptions are signalling: IEEE_DENORMAL
Note: The following floating-point exceptions are signalling: IEEE_DENORMAL
Note: The following floating-point exceptions are signalling: IEEE_DENORMAL
Note: The following floating-point exceptions are signalling: IEEE_DENORMAL
Note: The following floating-point exceptions are signalling: IEEE_DENORMAL
Note: The following floating-point exceptions are signalling: IEEE_DENORMAL
Note: The following floating-point exceptions are signalling: IEEE_DENORMAL
