
     Program PWSCF v.6.7MaX starts on 25Jan2023 at 21:28: 2 

     This program is part of the open-source Quantum ESPRESSO suite
     for quantum simulation of materials; please cite
         "P. Giannozzi et al., J. Phys.:Condens. Matter 21 395502 (2009);
         "P. Giannozzi et al., J. Phys.:Condens. Matter 29 465901 (2017);
          URL http://www.quantum-espresso.org", 
     in publications or presentations arising from this work. More details at
     http://www.quantum-espresso.org/quote

     Parallel version (MPI), running on    32 processors

     MPI processes distributed on     2 nodes
     R & G space division:  proc/nbgrp/npool/nimage =      32
     Reading input from scale_1da-04.in

     Current dimensions of program PWSCF are:
     Max number of different atomic species (ntypx) = 10
     Max number of k-points (npk) =  40000
     Max angular momentum in pseudopotentials (lmaxx) =  3
     Message from routine read_pp_mesh:
     mesh size missing, using the one in header
     file Fe.pbe-spn-kjpaw_psl.0.2.1.UPF: wavefunction(s)  3D renormalized
     file O.pbe-n-kjpaw_psl.0.1.UPF: wavefunction(s)  2P renormalized

     Subspace diagonalization in iterative solution of the eigenvalue problem:
     a serial algorithm will be used

     Message from routine setup:
     using ibrav=0 with symmetry is DISCOURAGED, use correct ibrav instead

     Parallelization info
     --------------------
     sticks:   dense  smooth     PW     G-vecs:    dense   smooth      PW
     Min         641     237     64                41813     9427    1324
     Max         642     238     66                41816     9430    1325
     Sum       20531    7599   2057              1338043   301725   42371



     bravais-lattice index     =            0
     lattice parameter (alat)  =      20.3206  a.u.
     unit-cell volume          =    2232.3697 (a.u.)^3
     number of atoms/cell      =           25
     number of atomic types    =            4
     number of electrons       =       189.00
     number of Kohn-Sham states=          114
     kinetic-energy cutoff     =     100.0000  Ry
     charge density cutoff     =    1080.0000  Ry
     scf convergence threshold =      2.0E-10
     mixing beta               =       0.4000
     number of iterations used =            8  plain     mixing
     Exchange-correlation= PBE
                           (   1   4   3   4   0   0   0)

     celldm(1)=  20.320559  celldm(2)=   0.000000  celldm(3)=   0.000000
     celldm(4)=   0.000000  celldm(5)=   0.000000  celldm(6)=   0.000000

     crystal axes: (cart. coord. in units of alat)
               a(1) = (   1.000000   0.000000   0.000000 )  
               a(2) = (   0.000000   0.578313   0.000000 )  
               a(3) = (   0.000000   0.000000   0.460041 )  

     reciprocal axes: (cart. coord. in units 2 pi/alat)
               b(1) = (  1.000000  0.000000  0.000000 )  
               b(2) = (  0.000000  1.729168  0.000000 )  
               b(3) = (  0.000000  0.000000  2.173720 )  


     PseudoPot. # 1 for Fe read from file:
     /opt/QEpot/SSSP_precision_pseudos/Fe.pbe-spn-kjpaw_psl.0.2.1.UPF
     MD5 check sum: e86618425769142926afa95317d90200
     Pseudo is Projector augmented-wave + core cor, Zval = 16.0
     Generated using "atomic" code by A. Dal Corso  v.5.0.99 svn rev. 10869
     Shape of augmentation charge: PSQ
     Using radial grid of 1191 points,  6 beta functions with: 
                l(1) =   0
                l(2) =   0
                l(3) =   1
                l(4) =   1
                l(5) =   2
                l(6) =   2
     Q(r) pseudized with 0 coefficients 


     PseudoPot. # 2 for Na read from file:
     /opt/QEpot/SSSP_precision_pseudos/Na_ONCV_PBE-1.0.oncvpsp.upf
     MD5 check sum: 24a298df0a6742ae313db96548fdb2a4
     Pseudo is Norm-conserving, Zval =  9.0
     Generated using ONCVPSP code by D. R. Hamann
     Using radial grid of 1992 points,  4 beta functions with: 
                l(1) =   0
                l(2) =   0
                l(3) =   1
                l(4) =   1

     PseudoPot. # 3 for O  read from file:
     /opt/QEpot/SSSP_precision_pseudos/O.pbe-n-kjpaw_psl.0.1.UPF
     MD5 check sum: 0234752ac141de4415c5fc33072bef88
     Pseudo is Projector augmented-wave + core cor, Zval =  6.0
     Generated using "atomic" code by A. Dal Corso  v.5.0.99 svn rev. 10869
     Shape of augmentation charge: BESSEL
     Using radial grid of 1095 points,  4 beta functions with: 
                l(1) =   0
                l(2) =   0
                l(3) =   1
                l(4) =   1
     Q(r) pseudized with 0 coefficients 


     PseudoPot. # 4 for P  read from file:
     /opt/QEpot/SSSP_precision_pseudos/P.pbe-n-rrkjus_psl.1.0.0.UPF
     MD5 check sum: 8b930f418f0a4573dca56cd030ffe088
     Pseudo is Ultrasoft + core correction, Zval =  5.0
     Generated using "atomic" code by A. Dal Corso  v.5.1
     Using radial grid of 1147 points,  6 beta functions with: 
                l(1) =   0
                l(2) =   0
                l(3) =   1
                l(4) =   1
                l(5) =   2
                l(6) =   2
     Q(r) pseudized with 0 coefficients 


     atomic species   valence    mass     pseudopotential
        Fe            16.00    55.84500     Fe( 1.00)
        Na             9.00    22.98977     Na( 1.00)
        O              6.00    15.99940     O ( 1.00)
        P              5.00    30.97376     P ( 1.00)

     Starting magnetic structure 
     atomic species   magnetization
        Fe           0.312
        Na           0.000
        O            0.000
        P            0.000

      2 Sym. Ops., with inversion, found


                                    s                        frac. trans.

      isym =  1     identity                                     

 cryst.   s( 1) = (     1          0          0      )
                  (     0          1          0      )
                  (     0          0          1      )

 cart.    s( 1) = (  1.0000000  0.0000000  0.0000000 )
                  (  0.0000000  1.0000000  0.0000000 )
                  (  0.0000000  0.0000000  1.0000000 )


      isym =  2     inversion                                    

 cryst.   s( 2) = (    -1          0          0      )
                  (     0         -1          0      )
                  (     0          0         -1      )

 cart.    s( 2) = ( -1.0000000  0.0000000  0.0000000 )
                  (  0.0000000 -1.0000000  0.0000000 )
                  (  0.0000000  0.0000000 -1.0000000 )


   Cartesian axes

     site n.     atom                  positions (alat units)
         1           Na  tau(   1) = (   0.9999980   0.0000000   0.2300218  )
         2           Fe  tau(   2) = (   0.2996860   0.4472035   0.3921494  )
         3           Fe  tau(   3) = (   0.2274400   0.1960989   0.2344589  )
         4           Fe  tau(   4) = (   0.7003200   0.1311122   0.0678937  )
         5           Fe  tau(   5) = (   0.7725660   0.3822168   0.2255847  )
         6           P   tau(   6) = (   0.0937970   0.3778742   0.1229036  )
         7           P   tau(   7) = (   0.3977930   0.1454035   0.4351319  )
         8           P   tau(   8) = (   0.9062090   0.2004415   0.3371418  )
         9           P   tau(   9) = (   0.6022130   0.4329123   0.0249107  )
        10           O   tau(  10) = (   0.1764850   0.3969632   0.2459203  )
        11           O   tau(  11) = (   0.3589780   0.1450675   0.1128195  )
        12           O   tau(  12) = (   0.8235200   0.1813525   0.2141219  )
        13           O   tau(  13) = (   0.6410280   0.4332483   0.3472245  )
        14           O   tau(  14) = (   0.4562740   0.4490836   0.0401565  )
        15           O   tau(  15) = (   0.0496550   0.1698094   0.3161368  )
        16           O   tau(  16) = (   0.5437320   0.1292321   0.4198871  )
        17           O   tau(  17) = (   0.9503500   0.4085063   0.1439063  )
        18           O   tau(  18) = (   0.1479210   0.4756866   0.0298221  )
        19           O   tau(  19) = (   0.3206550   0.0475691   0.3535354  )
        20           O   tau(  20) = (   0.8792370   0.3362276   0.3738255  )
        21           O   tau(  21) = (   0.6516400   0.3115423   0.0957971  )
        22           O   tau(  22) = (   0.8520850   0.1026291   0.4302214  )
        23           O   tau(  23) = (   0.6793510   0.5307466   0.1065082  )
        24           O   tau(  24) = (   0.1207690   0.2420875   0.0862176  )
        25           O   tau(  25) = (   0.3483660   0.2667734   0.3642465  )

   Crystallographic axes

     site n.     atom                  positions (cryst. coord.)
         1           Na  tau(   1) = (  0.9999980  0.0000000  0.5000030  )
         2           Fe  tau(   2) = (  0.2996860  0.7732900  0.8524230  )
         3           Fe  tau(   3) = (  0.2274400  0.3390880  0.5096480  )
         4           Fe  tau(   4) = (  0.7003200  0.2267150  0.1475820  )
         5           Fe  tau(   5) = (  0.7725660  0.6609170  0.4903580  )
         6           P   tau(   6) = (  0.0937970  0.6534080  0.2671580  )
         7           P   tau(   7) = (  0.3977930  0.2514270  0.9458550  )
         8           P   tau(   8) = (  0.9062090  0.3465970  0.7328520  )
         9           P   tau(   9) = (  0.6022130  0.7485780  0.0541490  )
        10           O   tau(  10) = (  0.1764850  0.6864160  0.5345620  )
        11           O   tau(  11) = (  0.3589780  0.2508460  0.2452380  )
        12           O   tau(  12) = (  0.8235200  0.3135890  0.4654410  )
        13           O   tau(  13) = (  0.6410280  0.7491590  0.7547690  )
        14           O   tau(  14) = (  0.4562740  0.7765410  0.0872890  )
        15           O   tau(  15) = (  0.0496550  0.2936290  0.6871930  )
        16           O   tau(  16) = (  0.5437320  0.2234640  0.9127170  )
        17           O   tau(  17) = (  0.9503500  0.7063760  0.3128120  )
        18           O   tau(  18) = (  0.1479210  0.8225420  0.0648250  )
        19           O   tau(  19) = (  0.3206550  0.0822550  0.7684870  )
        20           O   tau(  20) = (  0.8792370  0.5813940  0.8125920  )
        21           O   tau(  21) = (  0.6516400  0.5387090  0.2082360  )
        22           O   tau(  22) = (  0.8520850  0.1774630  0.9351810  )
        23           O   tau(  23) = (  0.6793510  0.9177500  0.2315190  )
        24           O   tau(  24) = (  0.1207690  0.4186100  0.1874130  )
        25           O   tau(  25) = (  0.3483660  0.4612960  0.7917700  )

     number of k points=   158  Marzari-Vanderbilt smearing, width (Ry)=  0.0073
                       cart. coord. in units 2pi/alat
        k(    1) = (   0.0000000   0.0000000   0.0000000), wk =   0.0031746
        k(    2) = (   0.0000000   0.0000000   0.2415245), wk =   0.0063492
        k(    3) = (   0.0000000   0.0000000   0.4830489), wk =   0.0063492
        k(    4) = (   0.0000000   0.0000000   0.7245734), wk =   0.0063492
        k(    5) = (   0.0000000   0.0000000   0.9660979), wk =   0.0063492
        k(    6) = (   0.0000000   0.2470240   0.0000000), wk =   0.0063492
        k(    7) = (   0.0000000   0.2470240   0.2415245), wk =   0.0063492
        k(    8) = (   0.0000000   0.2470240   0.4830489), wk =   0.0063492
        k(    9) = (   0.0000000   0.2470240   0.7245734), wk =   0.0063492
        k(   10) = (   0.0000000   0.2470240   0.9660979), wk =   0.0063492
        k(   11) = (   0.0000000   0.4940480   0.0000000), wk =   0.0063492
        k(   12) = (   0.0000000   0.4940480   0.2415245), wk =   0.0063492
        k(   13) = (   0.0000000   0.4940480   0.4830489), wk =   0.0063492
        k(   14) = (   0.0000000   0.4940480   0.7245734), wk =   0.0063492
        k(   15) = (   0.0000000   0.4940480   0.9660979), wk =   0.0063492
        k(   16) = (   0.0000000   0.7410720   0.0000000), wk =   0.0063492
        k(   17) = (   0.0000000   0.7410720   0.2415245), wk =   0.0063492
        k(   18) = (   0.0000000   0.7410720   0.4830489), wk =   0.0063492
        k(   19) = (   0.0000000   0.7410720   0.7245734), wk =   0.0063492
        k(   20) = (   0.0000000   0.7410720   0.9660979), wk =   0.0063492
        k(   21) = (   0.2000000   0.0000000   0.0000000), wk =   0.0063492
        k(   22) = (   0.2000000   0.0000000   0.2415245), wk =   0.0063492
        k(   23) = (   0.2000000   0.0000000   0.4830489), wk =   0.0063492
        k(   24) = (   0.2000000   0.0000000   0.7245734), wk =   0.0063492
        k(   25) = (   0.2000000   0.0000000   0.9660979), wk =   0.0063492
        k(   26) = (   0.2000000   0.2470240   0.0000000), wk =   0.0063492
        k(   27) = (   0.2000000   0.2470240   0.2415245), wk =   0.0063492
        k(   28) = (   0.2000000   0.2470240   0.4830489), wk =   0.0063492
        k(   29) = (   0.2000000   0.2470240   0.7245734), wk =   0.0063492
        k(   30) = (   0.2000000   0.2470240   0.9660979), wk =   0.0063492
        k(   31) = (   0.2000000   0.4940480   0.0000000), wk =   0.0063492
        k(   32) = (   0.2000000   0.4940480   0.2415245), wk =   0.0063492
        k(   33) = (   0.2000000   0.4940480   0.4830489), wk =   0.0063492
        k(   34) = (   0.2000000   0.4940480   0.7245734), wk =   0.0063492
        k(   35) = (   0.2000000   0.4940480   0.9660979), wk =   0.0063492
        k(   36) = (   0.2000000   0.7410720   0.0000000), wk =   0.0063492
        k(   37) = (   0.2000000   0.7410720   0.2415245), wk =   0.0063492
        k(   38) = (   0.2000000   0.7410720   0.4830489), wk =   0.0063492
        k(   39) = (   0.2000000   0.7410720   0.7245734), wk =   0.0063492
        k(   40) = (   0.2000000   0.7410720   0.9660979), wk =   0.0063492
        k(   41) = (   0.4000000   0.0000000   0.0000000), wk =   0.0063492
        k(   42) = (   0.4000000   0.0000000   0.2415245), wk =   0.0063492
        k(   43) = (   0.4000000   0.0000000   0.4830489), wk =   0.0063492
        k(   44) = (   0.4000000   0.0000000   0.7245734), wk =   0.0063492
        k(   45) = (   0.4000000   0.0000000   0.9660979), wk =   0.0063492
        k(   46) = (   0.4000000   0.2470240   0.0000000), wk =   0.0063492
        k(   47) = (   0.4000000   0.2470240   0.2415245), wk =   0.0063492
        k(   48) = (   0.4000000   0.2470240   0.4830489), wk =   0.0063492
        k(   49) = (   0.4000000   0.2470240   0.7245734), wk =   0.0063492
        k(   50) = (   0.4000000   0.2470240   0.9660979), wk =   0.0063492
        k(   51) = (   0.4000000   0.4940480   0.0000000), wk =   0.0063492
        k(   52) = (   0.4000000   0.4940480   0.2415245), wk =   0.0063492
        k(   53) = (   0.4000000   0.4940480   0.4830489), wk =   0.0063492
        k(   54) = (   0.4000000   0.4940480   0.7245734), wk =   0.0063492
        k(   55) = (   0.4000000   0.4940480   0.9660979), wk =   0.0063492
        k(   56) = (   0.4000000   0.7410720   0.0000000), wk =   0.0063492
        k(   57) = (   0.4000000   0.7410720   0.2415245), wk =   0.0063492
        k(   58) = (   0.4000000   0.7410720   0.4830489), wk =   0.0063492
        k(   59) = (   0.4000000   0.7410720   0.7245734), wk =   0.0063492
        k(   60) = (   0.4000000   0.7410720   0.9660979), wk =   0.0063492
        k(   61) = (   0.0000000   0.2470240  -0.2415245), wk =   0.0063492
        k(   62) = (   0.0000000   0.2470240  -0.4830489), wk =   0.0063492
        k(   63) = (   0.0000000   0.2470240  -0.7245734), wk =   0.0063492
        k(   64) = (   0.0000000   0.2470240  -0.9660979), wk =   0.0063492
        k(   65) = (   0.0000000   0.4940480  -0.2415245), wk =   0.0063492
        k(   66) = (   0.0000000   0.4940480  -0.4830489), wk =   0.0063492
        k(   67) = (   0.0000000   0.4940480  -0.7245734), wk =   0.0063492
        k(   68) = (   0.0000000   0.4940480  -0.9660979), wk =   0.0063492
        k(   69) = (   0.0000000   0.7410720  -0.2415245), wk =   0.0063492
        k(   70) = (   0.0000000   0.7410720  -0.4830489), wk =   0.0063492
        k(   71) = (   0.0000000   0.7410720  -0.7245734), wk =   0.0063492
        k(   72) = (   0.0000000   0.7410720  -0.9660979), wk =   0.0063492
        k(   73) = (   0.2000000   0.0000000  -0.2415245), wk =   0.0063492
        k(   74) = (   0.2000000   0.0000000  -0.4830489), wk =   0.0063492
        k(   75) = (   0.2000000   0.0000000  -0.7245734), wk =   0.0063492
        k(   76) = (   0.2000000   0.0000000  -0.9660979), wk =   0.0063492
        k(   77) = (  -0.2000000   0.2470240   0.0000000), wk =   0.0063492
        k(   78) = (  -0.2000000   0.2470240  -0.2415245), wk =   0.0063492
        k(   79) = (   0.2000000  -0.2470240  -0.2415245), wk =   0.0063492
        k(   80) = (  -0.2000000  -0.2470240   0.2415245), wk =   0.0063492
        k(   81) = (  -0.2000000   0.2470240  -0.4830489), wk =   0.0063492
        k(   82) = (   0.2000000  -0.2470240  -0.4830489), wk =   0.0063492
        k(   83) = (  -0.2000000  -0.2470240   0.4830489), wk =   0.0063492
        k(   84) = (  -0.2000000   0.2470240  -0.7245734), wk =   0.0063492
        k(   85) = (   0.2000000  -0.2470240  -0.7245734), wk =   0.0063492
        k(   86) = (  -0.2000000  -0.2470240   0.7245734), wk =   0.0063492
        k(   87) = (  -0.2000000   0.2470240  -0.9660979), wk =   0.0063492
        k(   88) = (   0.2000000  -0.2470240  -0.9660979), wk =   0.0063492
        k(   89) = (  -0.2000000  -0.2470240   0.9660979), wk =   0.0063492
        k(   90) = (  -0.2000000   0.4940480   0.0000000), wk =   0.0063492
        k(   91) = (  -0.2000000   0.4940480  -0.2415245), wk =   0.0063492
        k(   92) = (   0.2000000  -0.4940480  -0.2415245), wk =   0.0063492
        k(   93) = (  -0.2000000  -0.4940480   0.2415245), wk =   0.0063492
        k(   94) = (  -0.2000000   0.4940480  -0.4830489), wk =   0.0063492
        k(   95) = (   0.2000000  -0.4940480  -0.4830489), wk =   0.0063492
        k(   96) = (  -0.2000000  -0.4940480   0.4830489), wk =   0.0063492
        k(   97) = (  -0.2000000   0.4940480  -0.7245734), wk =   0.0063492
        k(   98) = (   0.2000000  -0.4940480  -0.7245734), wk =   0.0063492
        k(   99) = (  -0.2000000  -0.4940480   0.7245734), wk =   0.0063492
        k(  100) = (  -0.2000000   0.4940480  -0.9660979), wk =   0.0063492
        k(  101) = (   0.2000000  -0.4940480  -0.9660979), wk =   0.0063492
        k(  102) = (  -0.2000000  -0.4940480   0.9660979), wk =   0.0063492
        k(  103) = (  -0.2000000   0.7410720   0.0000000), wk =   0.0063492
        k(  104) = (  -0.2000000   0.7410720  -0.2415245), wk =   0.0063492
        k(  105) = (   0.2000000  -0.7410720  -0.2415245), wk =   0.0063492
        k(  106) = (  -0.2000000  -0.7410720   0.2415245), wk =   0.0063492
        k(  107) = (  -0.2000000   0.7410720  -0.4830489), wk =   0.0063492
        k(  108) = (   0.2000000  -0.7410720  -0.4830489), wk =   0.0063492
        k(  109) = (  -0.2000000  -0.7410720   0.4830489), wk =   0.0063492
        k(  110) = (  -0.2000000   0.7410720  -0.7245734), wk =   0.0063492
        k(  111) = (   0.2000000  -0.7410720  -0.7245734), wk =   0.0063492
        k(  112) = (  -0.2000000  -0.7410720   0.7245734), wk =   0.0063492
        k(  113) = (  -0.2000000   0.7410720  -0.9660979), wk =   0.0063492
        k(  114) = (   0.2000000  -0.7410720  -0.9660979), wk =   0.0063492
        k(  115) = (  -0.2000000  -0.7410720   0.9660979), wk =   0.0063492
        k(  116) = (   0.4000000   0.0000000  -0.2415245), wk =   0.0063492
        k(  117) = (   0.4000000   0.0000000  -0.4830489), wk =   0.0063492
        k(  118) = (   0.4000000   0.0000000  -0.7245734), wk =   0.0063492
        k(  119) = (   0.4000000   0.0000000  -0.9660979), wk =   0.0063492
        k(  120) = (  -0.4000000   0.2470240   0.0000000), wk =   0.0063492
        k(  121) = (  -0.4000000   0.2470240  -0.2415245), wk =   0.0063492
        k(  122) = (   0.4000000  -0.2470240  -0.2415245), wk =   0.0063492
        k(  123) = (  -0.4000000  -0.2470240   0.2415245), wk =   0.0063492
        k(  124) = (  -0.4000000   0.2470240  -0.4830489), wk =   0.0063492
        k(  125) = (   0.4000000  -0.2470240  -0.4830489), wk =   0.0063492
        k(  126) = (  -0.4000000  -0.2470240   0.4830489), wk =   0.0063492
        k(  127) = (  -0.4000000   0.2470240  -0.7245734), wk =   0.0063492
        k(  128) = (   0.4000000  -0.2470240  -0.7245734), wk =   0.0063492
        k(  129) = (  -0.4000000  -0.2470240   0.7245734), wk =   0.0063492
        k(  130) = (  -0.4000000   0.2470240  -0.9660979), wk =   0.0063492
        k(  131) = (   0.4000000  -0.2470240  -0.9660979), wk =   0.0063492
        k(  132) = (  -0.4000000  -0.2470240   0.9660979), wk =   0.0063492
        k(  133) = (  -0.4000000   0.4940480   0.0000000), wk =   0.0063492
        k(  134) = (  -0.4000000   0.4940480  -0.2415245), wk =   0.0063492
        k(  135) = (   0.4000000  -0.4940480  -0.2415245), wk =   0.0063492
        k(  136) = (  -0.4000000  -0.4940480   0.2415245), wk =   0.0063492
        k(  137) = (  -0.4000000   0.4940480  -0.4830489), wk =   0.0063492
        k(  138) = (   0.4000000  -0.4940480  -0.4830489), wk =   0.0063492
        k(  139) = (  -0.4000000  -0.4940480   0.4830489), wk =   0.0063492
        k(  140) = (  -0.4000000   0.4940480  -0.7245734), wk =   0.0063492
        k(  141) = (   0.4000000  -0.4940480  -0.7245734), wk =   0.0063492
        k(  142) = (  -0.4000000  -0.4940480   0.7245734), wk =   0.0063492
        k(  143) = (  -0.4000000   0.4940480  -0.9660979), wk =   0.0063492
        k(  144) = (   0.4000000  -0.4940480  -0.9660979), wk =   0.0063492
        k(  145) = (  -0.4000000  -0.4940480   0.9660979), wk =   0.0063492
        k(  146) = (  -0.4000000   0.7410720   0.0000000), wk =   0.0063492
        k(  147) = (  -0.4000000   0.7410720  -0.2415245), wk =   0.0063492
        k(  148) = (   0.4000000  -0.7410720  -0.2415245), wk =   0.0063492
        k(  149) = (  -0.4000000  -0.7410720   0.2415245), wk =   0.0063492
        k(  150) = (  -0.4000000   0.7410720  -0.4830489), wk =   0.0063492
        k(  151) = (   0.4000000  -0.7410720  -0.4830489), wk =   0.0063492
        k(  152) = (  -0.4000000  -0.7410720   0.4830489), wk =   0.0063492
        k(  153) = (  -0.4000000   0.7410720  -0.7245734), wk =   0.0063492
        k(  154) = (   0.4000000  -0.7410720  -0.7245734), wk =   0.0063492
        k(  155) = (  -0.4000000  -0.7410720   0.7245734), wk =   0.0063492
        k(  156) = (  -0.4000000   0.7410720  -0.9660979), wk =   0.0063492
        k(  157) = (   0.4000000  -0.7410720  -0.9660979), wk =   0.0063492
        k(  158) = (  -0.4000000  -0.7410720   0.9660979), wk =   0.0063492

                       cryst. coord.
        k(    1) = (   0.0000000   0.0000000   0.0000000), wk =   0.0031746
        k(    2) = (   0.0000000   0.0000000   0.1111111), wk =   0.0063492
        k(    3) = (   0.0000000   0.0000000   0.2222222), wk =   0.0063492
        k(    4) = (   0.0000000   0.0000000   0.3333333), wk =   0.0063492
        k(    5) = (   0.0000000   0.0000000   0.4444444), wk =   0.0063492
        k(    6) = (   0.0000000   0.1428571   0.0000000), wk =   0.0063492
        k(    7) = (   0.0000000   0.1428571   0.1111111), wk =   0.0063492
        k(    8) = (   0.0000000   0.1428571   0.2222222), wk =   0.0063492
        k(    9) = (   0.0000000   0.1428571   0.3333333), wk =   0.0063492
        k(   10) = (   0.0000000   0.1428571   0.4444444), wk =   0.0063492
        k(   11) = (   0.0000000   0.2857143   0.0000000), wk =   0.0063492
        k(   12) = (   0.0000000   0.2857143   0.1111111), wk =   0.0063492
        k(   13) = (   0.0000000   0.2857143   0.2222222), wk =   0.0063492
        k(   14) = (   0.0000000   0.2857143   0.3333333), wk =   0.0063492
        k(   15) = (   0.0000000   0.2857143   0.4444444), wk =   0.0063492
        k(   16) = (   0.0000000   0.4285714   0.0000000), wk =   0.0063492
        k(   17) = (   0.0000000   0.4285714   0.1111111), wk =   0.0063492
        k(   18) = (   0.0000000   0.4285714   0.2222222), wk =   0.0063492
        k(   19) = (   0.0000000   0.4285714   0.3333333), wk =   0.0063492
        k(   20) = (   0.0000000   0.4285714   0.4444444), wk =   0.0063492
        k(   21) = (   0.2000000   0.0000000   0.0000000), wk =   0.0063492
        k(   22) = (   0.2000000   0.0000000   0.1111111), wk =   0.0063492
        k(   23) = (   0.2000000   0.0000000   0.2222222), wk =   0.0063492
        k(   24) = (   0.2000000   0.0000000   0.3333333), wk =   0.0063492
        k(   25) = (   0.2000000   0.0000000   0.4444444), wk =   0.0063492
        k(   26) = (   0.2000000   0.1428571   0.0000000), wk =   0.0063492
        k(   27) = (   0.2000000   0.1428571   0.1111111), wk =   0.0063492
        k(   28) = (   0.2000000   0.1428571   0.2222222), wk =   0.0063492
        k(   29) = (   0.2000000   0.1428571   0.3333333), wk =   0.0063492
        k(   30) = (   0.2000000   0.1428571   0.4444444), wk =   0.0063492
        k(   31) = (   0.2000000   0.2857143   0.0000000), wk =   0.0063492
        k(   32) = (   0.2000000   0.2857143   0.1111111), wk =   0.0063492
        k(   33) = (   0.2000000   0.2857143   0.2222222), wk =   0.0063492
        k(   34) = (   0.2000000   0.2857143   0.3333333), wk =   0.0063492
        k(   35) = (   0.2000000   0.2857143   0.4444444), wk =   0.0063492
        k(   36) = (   0.2000000   0.4285714   0.0000000), wk =   0.0063492
        k(   37) = (   0.2000000   0.4285714   0.1111111), wk =   0.0063492
        k(   38) = (   0.2000000   0.4285714   0.2222222), wk =   0.0063492
        k(   39) = (   0.2000000   0.4285714   0.3333333), wk =   0.0063492
        k(   40) = (   0.2000000   0.4285714   0.4444444), wk =   0.0063492
        k(   41) = (   0.4000000   0.0000000   0.0000000), wk =   0.0063492
        k(   42) = (   0.4000000   0.0000000   0.1111111), wk =   0.0063492
        k(   43) = (   0.4000000   0.0000000   0.2222222), wk =   0.0063492
        k(   44) = (   0.4000000   0.0000000   0.3333333), wk =   0.0063492
        k(   45) = (   0.4000000   0.0000000   0.4444444), wk =   0.0063492
        k(   46) = (   0.4000000   0.1428571   0.0000000), wk =   0.0063492
        k(   47) = (   0.4000000   0.1428571   0.1111111), wk =   0.0063492
        k(   48) = (   0.4000000   0.1428571   0.2222222), wk =   0.0063492
        k(   49) = (   0.4000000   0.1428571   0.3333333), wk =   0.0063492
        k(   50) = (   0.4000000   0.1428571   0.4444444), wk =   0.0063492
        k(   51) = (   0.4000000   0.2857143   0.0000000), wk =   0.0063492
        k(   52) = (   0.4000000   0.2857143   0.1111111), wk =   0.0063492
        k(   53) = (   0.4000000   0.2857143   0.2222222), wk =   0.0063492
        k(   54) = (   0.4000000   0.2857143   0.3333333), wk =   0.0063492
        k(   55) = (   0.4000000   0.2857143   0.4444444), wk =   0.0063492
        k(   56) = (   0.4000000   0.4285714   0.0000000), wk =   0.0063492
        k(   57) = (   0.4000000   0.4285714   0.1111111), wk =   0.0063492
        k(   58) = (   0.4000000   0.4285714   0.2222222), wk =   0.0063492
        k(   59) = (   0.4000000   0.4285714   0.3333333), wk =   0.0063492
        k(   60) = (   0.4000000   0.4285714   0.4444444), wk =   0.0063492
        k(   61) = (   0.0000000   0.1428571  -0.1111111), wk =   0.0063492
        k(   62) = (   0.0000000   0.1428571  -0.2222222), wk =   0.0063492
        k(   63) = (   0.0000000   0.1428571  -0.3333333), wk =   0.0063492
        k(   64) = (   0.0000000   0.1428571  -0.4444444), wk =   0.0063492
        k(   65) = (   0.0000000   0.2857143  -0.1111111), wk =   0.0063492
        k(   66) = (   0.0000000   0.2857143  -0.2222222), wk =   0.0063492
        k(   67) = (   0.0000000   0.2857143  -0.3333333), wk =   0.0063492
        k(   68) = (   0.0000000   0.2857143  -0.4444444), wk =   0.0063492
        k(   69) = (   0.0000000   0.4285714  -0.1111111), wk =   0.0063492
        k(   70) = (   0.0000000   0.4285714  -0.2222222), wk =   0.0063492
        k(   71) = (   0.0000000   0.4285714  -0.3333333), wk =   0.0063492
        k(   72) = (   0.0000000   0.4285714  -0.4444444), wk =   0.0063492
        k(   73) = (   0.2000000   0.0000000  -0.1111111), wk =   0.0063492
        k(   74) = (   0.2000000   0.0000000  -0.2222222), wk =   0.0063492
        k(   75) = (   0.2000000   0.0000000  -0.3333333), wk =   0.0063492
        k(   76) = (   0.2000000   0.0000000  -0.4444444), wk =   0.0063492
        k(   77) = (  -0.2000000   0.1428571   0.0000000), wk =   0.0063492
        k(   78) = (  -0.2000000   0.1428571  -0.1111111), wk =   0.0063492
        k(   79) = (   0.2000000  -0.1428571  -0.1111111), wk =   0.0063492
        k(   80) = (  -0.2000000  -0.1428571   0.1111111), wk =   0.0063492
        k(   81) = (  -0.2000000   0.1428571  -0.2222222), wk =   0.0063492
        k(   82) = (   0.2000000  -0.1428571  -0.2222222), wk =   0.0063492
        k(   83) = (  -0.2000000  -0.1428571   0.2222222), wk =   0.0063492
        k(   84) = (  -0.2000000   0.1428571  -0.3333333), wk =   0.0063492
        k(   85) = (   0.2000000  -0.1428571  -0.3333333), wk =   0.0063492
        k(   86) = (  -0.2000000  -0.1428571   0.3333333), wk =   0.0063492
        k(   87) = (  -0.2000000   0.1428571  -0.4444444), wk =   0.0063492
        k(   88) = (   0.2000000  -0.1428571  -0.4444444), wk =   0.0063492
        k(   89) = (  -0.2000000  -0.1428571   0.4444444), wk =   0.0063492
        k(   90) = (  -0.2000000   0.2857143   0.0000000), wk =   0.0063492
        k(   91) = (  -0.2000000   0.2857143  -0.1111111), wk =   0.0063492
        k(   92) = (   0.2000000  -0.2857143  -0.1111111), wk =   0.0063492
        k(   93) = (  -0.2000000  -0.2857143   0.1111111), wk =   0.0063492
        k(   94) = (  -0.2000000   0.2857143  -0.2222222), wk =   0.0063492
        k(   95) = (   0.2000000  -0.2857143  -0.2222222), wk =   0.0063492
        k(   96) = (  -0.2000000  -0.2857143   0.2222222), wk =   0.0063492
        k(   97) = (  -0.2000000   0.2857143  -0.3333333), wk =   0.0063492
        k(   98) = (   0.2000000  -0.2857143  -0.3333333), wk =   0.0063492
        k(   99) = (  -0.2000000  -0.2857143   0.3333333), wk =   0.0063492
        k(  100) = (  -0.2000000   0.2857143  -0.4444444), wk =   0.0063492
        k(  101) = (   0.2000000  -0.2857143  -0.4444444), wk =   0.0063492
        k(  102) = (  -0.2000000  -0.2857143   0.4444444), wk =   0.0063492
        k(  103) = (  -0.2000000   0.4285714   0.0000000), wk =   0.0063492
        k(  104) = (  -0.2000000   0.4285714  -0.1111111), wk =   0.0063492
        k(  105) = (   0.2000000  -0.4285714  -0.1111111), wk =   0.0063492
        k(  106) = (  -0.2000000  -0.4285714   0.1111111), wk =   0.0063492
        k(  107) = (  -0.2000000   0.4285714  -0.2222222), wk =   0.0063492
        k(  108) = (   0.2000000  -0.4285714  -0.2222222), wk =   0.0063492
        k(  109) = (  -0.2000000  -0.4285714   0.2222222), wk =   0.0063492
        k(  110) = (  -0.2000000   0.4285714  -0.3333333), wk =   0.0063492
        k(  111) = (   0.2000000  -0.4285714  -0.3333333), wk =   0.0063492
        k(  112) = (  -0.2000000  -0.4285714   0.3333333), wk =   0.0063492
        k(  113) = (  -0.2000000   0.4285714  -0.4444444), wk =   0.0063492
        k(  114) = (   0.2000000  -0.4285714  -0.4444444), wk =   0.0063492
        k(  115) = (  -0.2000000  -0.4285714   0.4444444), wk =   0.0063492
        k(  116) = (   0.4000000   0.0000000  -0.1111111), wk =   0.0063492
        k(  117) = (   0.4000000   0.0000000  -0.2222222), wk =   0.0063492
        k(  118) = (   0.4000000   0.0000000  -0.3333333), wk =   0.0063492
        k(  119) = (   0.4000000   0.0000000  -0.4444444), wk =   0.0063492
        k(  120) = (  -0.4000000   0.1428571   0.0000000), wk =   0.0063492
        k(  121) = (  -0.4000000   0.1428571  -0.1111111), wk =   0.0063492
        k(  122) = (   0.4000000  -0.1428571  -0.1111111), wk =   0.0063492
        k(  123) = (  -0.4000000  -0.1428571   0.1111111), wk =   0.0063492
        k(  124) = (  -0.4000000   0.1428571  -0.2222222), wk =   0.0063492
        k(  125) = (   0.4000000  -0.1428571  -0.2222222), wk =   0.0063492
        k(  126) = (  -0.4000000  -0.1428571   0.2222222), wk =   0.0063492
        k(  127) = (  -0.4000000   0.1428571  -0.3333333), wk =   0.0063492
        k(  128) = (   0.4000000  -0.1428571  -0.3333333), wk =   0.0063492
        k(  129) = (  -0.4000000  -0.1428571   0.3333333), wk =   0.0063492
        k(  130) = (  -0.4000000   0.1428571  -0.4444444), wk =   0.0063492
        k(  131) = (   0.4000000  -0.1428571  -0.4444444), wk =   0.0063492
        k(  132) = (  -0.4000000  -0.1428571   0.4444444), wk =   0.0063492
        k(  133) = (  -0.4000000   0.2857143   0.0000000), wk =   0.0063492
        k(  134) = (  -0.4000000   0.2857143  -0.1111111), wk =   0.0063492
        k(  135) = (   0.4000000  -0.2857143  -0.1111111), wk =   0.0063492
        k(  136) = (  -0.4000000  -0.2857143   0.1111111), wk =   0.0063492
        k(  137) = (  -0.4000000   0.2857143  -0.2222222), wk =   0.0063492
        k(  138) = (   0.4000000  -0.2857143  -0.2222222), wk =   0.0063492
        k(  139) = (  -0.4000000  -0.2857143   0.2222222), wk =   0.0063492
        k(  140) = (  -0.4000000   0.2857143  -0.3333333), wk =   0.0063492
        k(  141) = (   0.4000000  -0.2857143  -0.3333333), wk =   0.0063492
        k(  142) = (  -0.4000000  -0.2857143   0.3333333), wk =   0.0063492
        k(  143) = (  -0.4000000   0.2857143  -0.4444444), wk =   0.0063492
        k(  144) = (   0.4000000  -0.2857143  -0.4444444), wk =   0.0063492
        k(  145) = (  -0.4000000  -0.2857143   0.4444444), wk =   0.0063492
        k(  146) = (  -0.4000000   0.4285714   0.0000000), wk =   0.0063492
        k(  147) = (  -0.4000000   0.4285714  -0.1111111), wk =   0.0063492
        k(  148) = (   0.4000000  -0.4285714  -0.1111111), wk =   0.0063492
        k(  149) = (  -0.4000000  -0.4285714   0.1111111), wk =   0.0063492
        k(  150) = (  -0.4000000   0.4285714  -0.2222222), wk =   0.0063492
        k(  151) = (   0.4000000  -0.4285714  -0.2222222), wk =   0.0063492
        k(  152) = (  -0.4000000  -0.4285714   0.2222222), wk =   0.0063492
        k(  153) = (  -0.4000000   0.4285714  -0.3333333), wk =   0.0063492
        k(  154) = (   0.4000000  -0.4285714  -0.3333333), wk =   0.0063492
        k(  155) = (  -0.4000000  -0.4285714   0.3333333), wk =   0.0063492
        k(  156) = (  -0.4000000   0.4285714  -0.4444444), wk =   0.0063492
        k(  157) = (   0.4000000  -0.4285714  -0.4444444), wk =   0.0063492
        k(  158) = (  -0.4000000  -0.4285714   0.4444444), wk =   0.0063492

     Dense  grid:  1338043 G-vectors     FFT dimensions: ( 216, 125, 100)

     Smooth grid:   301725 G-vectors     FFT dimensions: ( 135,  75,  60)

     Dynamical RAM for                 wfc:       2.05 MB

     Dynamical RAM for     wfc (w. buffer):     649.58 MB

     Dynamical RAM for           str. fact:       2.55 MB

     Dynamical RAM for           local pot:       0.00 MB

     Dynamical RAM for          nlocal pot:       5.03 MB

     Dynamical RAM for                qrad:      10.54 MB

     Dynamical RAM for          rho,v,vnew:       8.77 MB

     Dynamical RAM for               rhoin:       2.92 MB

     Dynamical RAM for            rho*nmix:      20.42 MB

     Dynamical RAM for           G-vectors:       2.46 MB

     Dynamical RAM for          h,s,v(r/c):       2.38 MB

     Dynamical RAM for          <psi|beta>:       0.49 MB

     Dynamical RAM for                 psi:       4.10 MB

     Dynamical RAM for                hpsi:       4.10 MB

     Dynamical RAM for                spsi:       4.10 MB

     Dynamical RAM for      wfcinit/wfcrot:       5.36 MB

     Dynamical RAM for           addusdens:     129.53 MB

     Dynamical RAM for          addusforce:     148.79 MB

     Dynamical RAM for         addusstress:     129.21 MB

     Estimated static dynamical RAM per process >     710.42 MB

     Estimated max dynamical RAM per process >     859.21 MB

     Estimated total dynamical RAM >      26.85 GB

     Check: negative core charge=   -0.000003
     Generating pointlists ...
     new r_m :   0.0754 (alat units)  1.5317 (a.u.) for type    1
     new r_m :   0.0812 (alat units)  1.6493 (a.u.) for type    2
     new r_m :   0.0590 (alat units)  1.1994 (a.u.) for type    3
     new r_m :   0.0590 (alat units)  1.1994 (a.u.) for type    4

     Initial potential from superposition of free atoms

     starting charge  188.99132, renormalised to  189.00000
     Starting wfcs are  137 randomized atomic wfcs
     Checking if some PAW data can be deallocated... 
       PAW data deallocated on   24 nodes for type:  1
       PAW data deallocated on   16 nodes for type:  3

     total cpu time spent up to now is     1358.2 secs

     Self-consistent Calculation

     iteration #  1     ecut=   100.00 Ry     beta= 0.40
     Davidson diagonalization with overlap
     ethr =  1.00E-02,  avg # of iterations =  3.0

     negative rho (up, down):  0.000E+00 8.628E-05

     total cpu time spent up to now is     5008.7 secs

     total energy              =   -2123.72858903 Ry
     estimated scf accuracy    <       6.97091467 Ry

     total magnetization       =    19.00 Bohr mag/cell
     absolute magnetization    =    19.00 Bohr mag/cell

     iteration #  2     ecut=   100.00 Ry     beta= 0.40
     Davidson diagonalization with overlap
     ethr =  3.69E-03,  avg # of iterations =  2.0

     negative rho (up, down):  0.000E+00 4.419E-05

     total cpu time spent up to now is     8444.8 secs

     total energy              =   -2121.78043576 Ry
     estimated scf accuracy    <      24.70604174 Ry

     total magnetization       =     9.88 Bohr mag/cell
     absolute magnetization    =    10.23 Bohr mag/cell

     iteration #  3     ecut=   100.00 Ry     beta= 0.40
     Davidson diagonalization with overlap
     ethr =  3.69E-03,  avg # of iterations =  2.0

     negative rho (up, down):  0.000E+00 3.454E-05

     total cpu time spent up to now is    11326.0 secs

     total energy              =   -2124.23965824 Ry
     estimated scf accuracy    <      23.55562547 Ry

     total magnetization       =     8.77 Bohr mag/cell
     absolute magnetization    =     9.58 Bohr mag/cell

     iteration #  4     ecut=   100.00 Ry     beta= 0.40
     Davidson diagonalization with overlap
     ethr =  3.69E-03,  avg # of iterations =  1.9

     negative rho (up, down):  0.000E+00 1.498E-04

     total cpu time spent up to now is    14156.0 secs

     total energy              =   -2125.93430448 Ry
     estimated scf accuracy    <       2.28268530 Ry

     total magnetization       =    19.09 Bohr mag/cell
     absolute magnetization    =    19.09 Bohr mag/cell

     iteration #  5     ecut=   100.00 Ry     beta= 0.40
     Davidson diagonalization with overlap
     ethr =  1.21E-03,  avg # of iterations =  1.5

     negative rho (up, down):  0.000E+00 4.250E-04

     total cpu time spent up to now is    16915.2 secs

     total energy              =   -2125.76598115 Ry
     estimated scf accuracy    <       0.84719433 Ry

     total magnetization       =    19.00 Bohr mag/cell
     absolute magnetization    =    19.00 Bohr mag/cell

     iteration #  6     ecut=   100.00 Ry     beta= 0.40
     Davidson diagonalization with overlap
     ethr =  4.48E-04,  avg # of iterations =  2.1

     negative rho (up, down):  0.000E+00 4.459E-04

     total cpu time spent up to now is    19902.2 secs

     total energy              =   -2125.90919961 Ry
     estimated scf accuracy    <       1.09232586 Ry

     total magnetization       =    18.11 Bohr mag/cell
     absolute magnetization    =    18.13 Bohr mag/cell

     iteration #  7     ecut=   100.00 Ry     beta= 0.40
     Davidson diagonalization with overlap
     ethr =  4.48E-04,  avg # of iterations =  1.0

     negative rho (up, down):  0.000E+00 5.183E-04

     total cpu time spent up to now is    22601.7 secs

     total energy              =   -2125.92416829 Ry
     estimated scf accuracy    <       0.38321420 Ry

     total magnetization       =    19.00 Bohr mag/cell
     absolute magnetization    =    19.01 Bohr mag/cell

     iteration #  8     ecut=   100.00 Ry     beta= 0.40
     Davidson diagonalization with overlap
     ethr =  2.03E-04,  avg # of iterations =  1.8

     negative rho (up, down):  0.000E+00 7.675E-04

     total cpu time spent up to now is    25382.6 secs

     total energy              =   -2125.91677557 Ry
     estimated scf accuracy    <       0.27235684 Ry

     total magnetization       =    19.00 Bohr mag/cell
     absolute magnetization    =    19.01 Bohr mag/cell

     iteration #  9     ecut=   100.00 Ry     beta= 0.40
     Davidson diagonalization with overlap
     ethr =  1.44E-04,  avg # of iterations =  5.5

     negative rho (up, down):  0.000E+00 1.006E-03

     total cpu time spent up to now is    28517.3 secs

     total energy              =   -2125.91599671 Ry
     estimated scf accuracy    <       0.05757072 Ry

     total magnetization       =    19.00 Bohr mag/cell
     absolute magnetization    =    19.02 Bohr mag/cell

     iteration # 10     ecut=   100.00 Ry     beta= 0.40
     Davidson diagonalization with overlap
     c_bands:  1 eigenvalues not converged
     c_bands:  1 eigenvalues not converged
     c_bands:  1 eigenvalues not converged
     c_bands:  1 eigenvalues not converged
     c_bands:  1 eigenvalues not converged
     c_bands:  1 eigenvalues not converged
     c_bands:  1 eigenvalues not converged
     c_bands:  1 eigenvalues not converged
     c_bands:  1 eigenvalues not converged
     c_bands:  1 eigenvalues not converged
     c_bands:  1 eigenvalues not converged
     c_bands:  1 eigenvalues not converged
     c_bands:  1 eigenvalues not converged
     ethr =  3.05E-05,  avg # of iterations = 13.9

     negative rho (up, down):  0.000E+00 9.820E-04

     total cpu time spent up to now is    32813.5 secs

     total energy              =   -2125.92576434 Ry
     estimated scf accuracy    <       0.16628275 Ry

     total magnetization       =    19.00 Bohr mag/cell
     absolute magnetization    =    19.04 Bohr mag/cell

     iteration # 11     ecut=   100.00 Ry     beta= 0.40
     Davidson diagonalization with overlap
     ethr =  3.05E-05,  avg # of iterations =  1.1

     negative rho (up, down):  0.000E+00 8.757E-04

     total cpu time spent up to now is    35527.4 secs

     total energy              =   -2125.92667222 Ry
     estimated scf accuracy    <       0.11026533 Ry

     total magnetization       =    19.00 Bohr mag/cell
     absolute magnetization    =    19.04 Bohr mag/cell

     iteration # 12     ecut=   100.00 Ry     beta= 0.40
     Davidson diagonalization with overlap
     ethr =  3.05E-05,  avg # of iterations =  1.1

     negative rho (up, down):  0.000E+00 8.538E-04

     total cpu time spent up to now is    38234.1 secs

     total energy              =   -2125.92373106 Ry
     estimated scf accuracy    <       0.07965903 Ry

     total magnetization       =    19.00 Bohr mag/cell
     absolute magnetization    =    19.04 Bohr mag/cell

     iteration # 13     ecut=   100.00 Ry     beta= 0.40
     Davidson diagonalization with overlap
     ethr =  3.05E-05,  avg # of iterations =  1.0

     negative rho (up, down):  0.000E+00 8.663E-04

     total cpu time spent up to now is    40934.1 secs

     total energy              =   -2125.92749734 Ry
     estimated scf accuracy    <       0.02448766 Ry

     total magnetization       =    19.00 Bohr mag/cell
     absolute magnetization    =    19.04 Bohr mag/cell

     iteration # 14     ecut=   100.00 Ry     beta= 0.40
     Davidson diagonalization with overlap
     ethr =  1.30E-05,  avg # of iterations =  1.0

     negative rho (up, down):  0.000E+00 8.887E-04

     total cpu time spent up to now is    43637.4 secs

     total energy              =   -2125.92719836 Ry
     estimated scf accuracy    <       0.01501574 Ry

     total magnetization       =    19.00 Bohr mag/cell
     absolute magnetization    =    19.04 Bohr mag/cell

     iteration # 15     ecut=   100.00 Ry     beta= 0.40
     Davidson diagonalization with overlap
     c_bands:  1 eigenvalues not converged
     c_bands:  1 eigenvalues not converged
     ethr =  7.94E-06,  avg # of iterations =  1.2

     negative rho (up, down):  0.000E+00 8.885E-04

     total cpu time spent up to now is    46361.0 secs

     total energy              =   -2125.92778745 Ry
     estimated scf accuracy    <       0.00112577 Ry

     total magnetization       =    19.00 Bohr mag/cell
     absolute magnetization    =    19.05 Bohr mag/cell

     iteration # 16     ecut=   100.00 Ry     beta= 0.40
     Davidson diagonalization with overlap
     c_bands:  1 eigenvalues not converged
     c_bands:  1 eigenvalues not converged
     c_bands:  1 eigenvalues not converged
     c_bands:  1 eigenvalues not converged
     c_bands:  1 eigenvalues not converged
     c_bands:  1 eigenvalues not converged
     c_bands:  1 eigenvalues not converged
     ethr =  5.96E-07,  avg # of iterations =  6.9

     negative rho (up, down):  0.000E+00 8.828E-04

     total cpu time spent up to now is    50255.4 secs

     total energy              =   -2125.92802746 Ry
     estimated scf accuracy    <       0.00114495 Ry

     total magnetization       =    19.00 Bohr mag/cell
     absolute magnetization    =    19.05 Bohr mag/cell

     iteration # 17     ecut=   100.00 Ry     beta= 0.40
     Davidson diagonalization with overlap
     ethr =  5.96E-07,  avg # of iterations =  1.3

     negative rho (up, down):  0.000E+00 8.727E-04

     total cpu time spent up to now is    52987.0 secs

     total energy              =   -2125.92803478 Ry
     estimated scf accuracy    <       0.00042184 Ry

     total magnetization       =    19.00 Bohr mag/cell
     absolute magnetization    =    19.05 Bohr mag/cell

     iteration # 18     ecut=   100.00 Ry     beta= 0.40
     Davidson diagonalization with overlap
     ethr =  2.23E-07,  avg # of iterations =  1.5

     negative rho (up, down):  0.000E+00 8.727E-04

     total cpu time spent up to now is    55777.4 secs

     total energy              =   -2125.92805995 Ry
     estimated scf accuracy    <       0.00000418 Ry

     total magnetization       =    19.00 Bohr mag/cell
     absolute magnetization    =    19.05 Bohr mag/cell

     iteration # 19     ecut=   100.00 Ry     beta= 0.40
     Davidson diagonalization with overlap
     ethr =  2.21E-09,  avg # of iterations =  8.7

     negative rho (up, down):  0.000E+00 8.721E-04

     total cpu time spent up to now is    63847.1 secs

     total energy              =   -2125.92808031 Ry
     estimated scf accuracy    <       0.00000527 Ry

     total magnetization       =    19.00 Bohr mag/cell
     absolute magnetization    =    19.05 Bohr mag/cell

     iteration # 20     ecut=   100.00 Ry     beta= 0.40
     Davidson diagonalization with overlap
     ethr =  2.21E-09,  avg # of iterations =  1.0

     negative rho (up, down):  0.000E+00 8.721E-04

     total cpu time spent up to now is    66548.0 secs

     total energy              =   -2125.92808078 Ry
     estimated scf accuracy    <       0.00000045 Ry

     total magnetization       =    19.00 Bohr mag/cell
     absolute magnetization    =    19.05 Bohr mag/cell

     iteration # 21     ecut=   100.00 Ry     beta= 0.40
     Davidson diagonalization with overlap
     ethr =  2.40E-10,  avg # of iterations =  2.7

     negative rho (up, down):  0.000E+00 8.722E-04

     total cpu time spent up to now is    69648.5 secs

     total energy              =   -2125.92808102 Ry
     estimated scf accuracy    <       0.00000042 Ry

     total magnetization       =    19.00 Bohr mag/cell
     absolute magnetization    =    19.05 Bohr mag/cell

     iteration # 22     ecut=   100.00 Ry     beta= 0.40
     Davidson diagonalization with overlap
     ethr =  2.25E-10,  avg # of iterations =  1.5

     negative rho (up, down):  0.000E+00 8.724E-04

     total cpu time spent up to now is    72437.9 secs

     total energy              =   -2125.92808112 Ry
     estimated scf accuracy    <       0.00000009 Ry

     total magnetization       =    19.00 Bohr mag/cell
     absolute magnetization    =    19.05 Bohr mag/cell

     iteration # 23     ecut=   100.00 Ry     beta= 0.40
     Davidson diagonalization with overlap
     ethr =  4.71E-11,  avg # of iterations =  3.5

     negative rho (up, down):  0.000E+00 8.723E-04

     total cpu time spent up to now is    75882.9 secs

     total energy              =   -2125.92808117 Ry
     estimated scf accuracy    <       0.00000003 Ry

     total magnetization       =    19.00 Bohr mag/cell
     absolute magnetization    =    19.05 Bohr mag/cell

     iteration # 24     ecut=   100.00 Ry     beta= 0.40
     Davidson diagonalization with overlap
     ethr =  1.43E-11,  avg # of iterations =  3.7

     negative rho (up, down):  0.000E+00 8.723E-04

     total cpu time spent up to now is    79262.8 secs

     total energy              =   -2125.92808118 Ry
     estimated scf accuracy    <       0.00000005 Ry

     total magnetization       =    19.00 Bohr mag/cell
     absolute magnetization    =    19.05 Bohr mag/cell

     iteration # 25     ecut=   100.00 Ry     beta= 0.40
     Davidson diagonalization with overlap
     ethr =  1.43E-11,  avg # of iterations =  2.0

     negative rho (up, down):  0.000E+00 8.723E-04

     total cpu time spent up to now is    82211.5 secs

     total energy              =   -2125.92808120 Ry
     estimated scf accuracy    <          6.0E-09 Ry

     total magnetization       =    19.00 Bohr mag/cell
     absolute magnetization    =    19.05 Bohr mag/cell

     iteration # 26     ecut=   100.00 Ry     beta= 0.40
     Davidson diagonalization with overlap
     ethr =  3.17E-12,  avg # of iterations =  3.0

     negative rho (up, down):  0.000E+00 8.723E-04

     total cpu time spent up to now is    85562.0 secs

     total energy              =   -2125.92808120 Ry
     estimated scf accuracy    <          3.4E-09 Ry

     total magnetization       =    19.00 Bohr mag/cell
     absolute magnetization    =    19.05 Bohr mag/cell

     iteration # 27     ecut=   100.00 Ry     beta= 0.40
     Davidson diagonalization with overlap
     ethr =  1.79E-12,  avg # of iterations =  2.1

     negative rho (up, down):  0.000E+00 8.723E-04

     total cpu time spent up to now is    88621.3 secs

     total energy              =   -2125.92808120 Ry
     estimated scf accuracy    <          1.0E-09 Ry

     total magnetization       =    19.00 Bohr mag/cell
     absolute magnetization    =    19.05 Bohr mag/cell

     iteration # 28     ecut=   100.00 Ry     beta= 0.40
     Davidson diagonalization with overlap
     ethr =  5.51E-13,  avg # of iterations =  3.5

     negative rho (up, down):  0.000E+00 8.723E-04

     total cpu time spent up to now is    92179.7 secs

     total energy              =   -2125.92808121 Ry
     estimated scf accuracy    <          3.8E-10 Ry

     total magnetization       =    19.00 Bohr mag/cell
     absolute magnetization    =    19.05 Bohr mag/cell

     iteration # 29     ecut=   100.00 Ry     beta= 0.40
     Davidson diagonalization with overlap
     ethr =  2.03E-13,  avg # of iterations =  2.9

     negative rho (up, down):  0.000E+00 8.723E-04

     Magnetic moment per site:
     atom:    1    charge:    7.8429    magn:    0.0009    constr:    0.0000
     atom:    2    charge:   12.9833    magn:    3.6473    constr:    0.0000
     atom:    3    charge:   12.9879    magn:    3.6336    constr:    0.0000
     atom:    4    charge:   12.9833    magn:    3.6473    constr:    0.0000
     atom:    5    charge:   12.9879    magn:    3.6336    constr:    0.0000
     atom:    6    charge:    0.8433    magn:    0.0096    constr:    0.0000
     atom:    7    charge:    0.8288    magn:    0.0107    constr:    0.0000
     atom:    8    charge:    0.8433    magn:    0.0096    constr:    0.0000
     atom:    9    charge:    0.8288    magn:    0.0107    constr:    0.0000
     atom:   10    charge:    4.2325    magn:    0.1535    constr:    0.0000
     atom:   11    charge:    4.2562    magn:    0.1086    constr:    0.0000
     atom:   12    charge:    4.2325    magn:    0.1535    constr:    0.0000
     atom:   13    charge:    4.2562    magn:    0.1086    constr:    0.0000
     atom:   14    charge:    4.2195    magn:    0.1229    constr:    0.0000
     atom:   15    charge:    4.2381    magn:    0.0909    constr:    0.0000
     atom:   16    charge:    4.2195    magn:    0.1229    constr:    0.0000
     atom:   17    charge:    4.2381    magn:    0.0909    constr:    0.0000
     atom:   18    charge:    4.2471    magn:    0.1361    constr:    0.0000
     atom:   19    charge:    4.2409    magn:    0.1441    constr:    0.0000
     atom:   20    charge:    4.2534    magn:    0.1234    constr:    0.0000
     atom:   21    charge:    4.2553    magn:    0.1557    constr:    0.0000
     atom:   22    charge:    4.2472    magn:    0.1361    constr:    0.0000
     atom:   23    charge:    4.2408    magn:    0.1441    constr:    0.0000
     atom:   24    charge:    4.2534    magn:    0.1234    constr:    0.0000
     atom:   25    charge:    4.2553    magn:    0.1557    constr:    0.0000

     total cpu time spent up to now is    95551.7 secs

     End of self-consistent calculation

 ------ SPIN UP ------------


          k = 0.0000 0.0000 0.0000 ( 37701 PWs)   bands (ev):

   -85.4959 -85.4939 -85.4889 -85.4885 -51.7002 -51.6999 -51.5943 -51.5921
   -51.4898 -51.4879 -51.4260 -51.4257 -51.3992 -51.3973 -51.3296 -51.3292
   -45.5695 -17.7197 -17.5800 -17.5137 -16.4308 -16.2321 -16.2117 -15.9447
   -14.0776 -14.0290 -13.9587 -13.9285 -13.8423 -13.8415 -13.6005 -13.5511
   -13.4897 -13.4767 -13.4106 -13.4044  -4.6306  -4.3297  -3.7838  -3.7358
    -2.4958  -2.4785  -2.0324  -1.9130  -1.7362  -1.6039  -1.5570  -1.3864
    -1.3068  -1.2541  -1.1186  -1.1014  -0.5373  -0.4787  -0.1131   0.0048
     0.0163   0.1358   0.1706   0.2849   0.4687   0.4823   0.6127   0.7553
     0.9570   0.9760   1.1103   1.1160   1.2455   1.2830   1.4923   1.5374
     1.6808   1.7666   1.8005   1.8610   1.9400   1.9781   2.0668   2.1100
     2.2190   2.4744   2.4937   2.5180   2.6662   2.6675   2.7838   2.9098
     2.9195   3.1934   3.2372   3.2579   3.4277   3.4621   3.5599   3.6799
     3.7066   3.7335   3.8561   3.9103   3.9531   4.0613   4.4018   4.4381
     8.3375  10.1848  10.5757  11.0228  11.4706  12.4099  12.4871  12.5374
    12.5886  12.7701

     occupation numbers 
     1.0000   1.0000   1.0000   1.0000   1.0000   1.0000   1.0000   1.0000
     1.0000   1.0000   1.0000   1.0000   1.0000   1.0000   1.0000   1.0000
     1.0000   1.0000   1.0000   1.0000   1.0000   1.0000   1.0000   1.0000
     1.0000   1.0000   1.0000   1.0000   1.0000   1.0000   1.0000   1.0000
     1.0000   1.0000   1.0000   1.0000   1.0000   1.0000   1.0000   1.0000
     1.0000   1.0000   1.0000   1.0000   1.0000   1.0000   1.0000   1.0000
     1.0000   1.0000   1.0000   1.0000   1.0000   1.0000   1.0000   1.0000
     1.0000   1.0000   1.0000   1.0000   1.0000   1.0000   1.0000   1.0000
     1.0000   1.0000   1.0000   1.0000   1.0000   1.0000   1.0000   1.0000
     1.0000   1.0000   1.0000   1.0000   1.0000   1.0000   1.0000   1.0000
     1.0000   1.0000   1.0000   1.0000   1.0000   1.0000   1.0000   1.0000
     1.0000   1.0000   1.0000   1.0000   1.0000   1.0000   1.0000   1.0000
     1.0000   1.0000   1.0000   1.0000   1.0000   1.0000   1.0000   1.0000
     0.0000   0.0000   0.0000   0.0000   0.0000   0.0000   0.0000   0.0000
     0.0000   0.0000

          k = 0.0000 0.0000 0.2415 ( 37675 PWs)   bands (ev):

   -85.4959 -85.4939 -85.4889 -85.4885 -51.7002 -51.6999 -51.5943 -51.5921
   -51.4898 -51.4879 -51.4260 -51.4257 -51.3992 -51.3973 -51.3296 -51.3292
   -45.5695 -17.7197 -17.5800 -17.5139 -16.4170 -16.2239 -16.2026 -15.9460
   -14.0896 -14.0410 -13.9574 -13.9321 -13.8477 -13.8376 -13.6220 -13.5556
   -13.4913 -13.4736 -13.4344 -13.3848  -4.6028  -4.3173  -3.8097  -3.6901
    -2.4876  -2.4380  -2.0347  -1.9182  -1.7179  -1.6028  -1.5207  -1.4126
    -1.2763  -1.2674  -1.1659  -1.0586  -0.5336  -0.4718  -0.1144  -0.0313
     0.0314   0.1218   0.2058   0.2696   0.4665   0.5203   0.6191   0.7039
     0.8712   1.0242   1.1077   1.1518   1.2091   1.3474   1.4606   1.5415
     1.6629   1.7396   1.8264   1.8473   1.9116   1.9520   2.0548   2.1645
     2.2197   2.4503   2.5017   2.5142   2.6312   2.6437   2.7992   2.8727
     2.9258   3.1925   3.2286   3.2854   3.3898   3.4610   3.5735   3.6351
     3.6857   3.7304   3.8672   3.9032   3.9537   4.0727   4.4050   4.4379
     8.4775  10.2468  10.6251  11.0460  11.5180  12.3219  12.4206  12.5382
    12.6179  12.7373

     occupation numbers 
     1.0000   1.0000   1.0000   1.0000   1.0000   1.0000   1.0000   1.0000
     1.0000   1.0000   1.0000   1.0000   1.0000   1.0000   1.0000   1.0000
     1.0000   1.0000   1.0000   1.0000   1.0000   1.0000   1.0000   1.0000
     1.0000   1.0000   1.0000   1.0000   1.0000   1.0000   1.0000   1.0000
     1.0000   1.0000   1.0000   1.0000   1.0000   1.0000   1.0000   1.0000
     1.0000   1.0000   1.0000   1.0000   1.0000   1.0000   1.0000   1.0000
     1.0000   1.0000   1.0000   1.0000   1.0000   1.0000   1.0000   1.0000
     1.0000   1.0000   1.0000   1.0000   1.0000   1.0000   1.0000   1.0000
     1.0000   1.0000   1.0000   1.0000   1.0000   1.0000   1.0000   1.0000
     1.0000   1.0000   1.0000   1.0000   1.0000   1.0000   1.0000   1.0000
     1.0000   1.0000   1.0000   1.0000   1.0000   1.0000   1.0000   1.0000
     1.0000   1.0000   1.0000   1.0000   1.0000   1.0000   1.0000   1.0000
     1.0000   1.0000   1.0000   1.0000   1.0000   1.0000   1.0000   1.0000
     0.0000   0.0000   0.0000   0.0000   0.0000   0.0000   0.0000   0.0000
     0.0000   0.0000

          k = 0.0000 0.0000 0.4830 ( 37730 PWs)   bands (ev):

   -85.4959 -85.4939 -85.4889 -85.4885 -51.7002 -51.6999 -51.5943 -51.5921
   -51.4898 -51.4879 -51.4260 -51.4257 -51.3992 -51.3973 -51.3296 -51.3292
   -45.5695 -17.7199 -17.5801 -17.5143 -16.3804 -16.2016 -16.1790 -15.9521
   -14.1222 -14.0745 -13.9523 -13.9375 -13.8569 -13.8401 -13.6526 -13.5807
   -13.4974 -13.4675 -13.4535 -13.3757  -4.5319  -4.2852  -3.8177  -3.6384
    -2.4609  -2.3399  -2.0146  -1.9373  -1.6963  -1.5911  -1.4655  -1.4148
    -1.3046  -1.2526  -1.1652  -1.0454  -0.5439  -0.4345  -0.0976  -0.0683
     0.0615   0.1002   0.2319   0.2687   0.4981   0.5517   0.6069   0.6518
     0.8334   1.0078   1.1009   1.1486   1.2265   1.3219   1.4765   1.5087
     1.5656   1.7133   1.7554   1.8400   1.9076   1.9820   2.0589   2.1502
     2.2659   2.3745   2.4628   2.4876   2.5462   2.6189   2.8447   2.8644
     2.9321   3.1693   3.2379   3.2814   3.3555   3.4800   3.5513   3.5899
     3.6647   3.7146   3.8294   3.9253   3.9614   4.0904   4.4075   4.4344
     8.8506  10.4039  10.7332  11.1144  11.6360  12.0228  12.3912  12.4498
    12.5642  12.7348

     occupation numbers 
     1.0000   1.0000   1.0000   1.0000   1.0000   1.0000   1.0000   1.0000
     1.0000   1.0000   1.0000   1.0000   1.0000   1.0000   1.0000   1.0000
     1.0000   1.0000   1.0000   1.0000   1.0000   1.0000   1.0000   1.0000
     1.0000   1.0000   1.0000   1.0000   1.0000   1.0000   1.0000   1.0000
     1.0000   1.0000   1.0000   1.0000   1.0000   1.0000   1.0000   1.0000
     1.0000   1.0000   1.0000   1.0000   1.0000   1.0000   1.0000   1.0000
     1.0000   1.0000   1.0000   1.0000   1.0000   1.0000   1.0000   1.0000
     1.0000   1.0000   1.0000   1.0000   1.0000   1.0000   1.0000   1.0000
     1.0000   1.0000   1.0000   1.0000   1.0000   1.0000   1.0000   1.0000
     1.0000   1.0000   1.0000   1.0000   1.0000   1.0000   1.0000   1.0000
     1.0000   1.0000   1.0000   1.0000   1.0000   1.0000   1.0000   1.0000
     1.0000   1.0000   1.0000   1.0000   1.0000   1.0000   1.0000   1.0000
     1.0000   1.0000   1.0000   1.0000   1.0000   1.0000   1.0000   1.0000
     0.0000   0.0000   0.0000   0.0000   0.0000   0.0000   0.0000   0.0000
     0.0000   0.0000

          k = 0.0000 0.0000 0.7246 ( 37724 PWs)   bands (ev):

   -85.4959 -85.4939 -85.4889 -85.4885 -51.7002 -51.6999 -51.5943 -51.5922
   -51.4898 -51.4879 -51.4260 -51.4257 -51.3992 -51.3973 -51.3296 -51.3292
   -45.5695 -17.7200 -17.5801 -17.5147 -16.3356 -16.1709 -16.1512 -15.9664
   -14.1611 -14.1171 -13.9454 -13.9360 -13.8698 -13.8593 -13.6639 -13.6098
   -13.5093 -13.4632 -13.4596 -13.3814  -4.4504  -4.2466  -3.7947  -3.6227
    -2.4214  -2.2385  -1.9737  -1.9393  -1.6997  -1.5937  -1.4772  -1.3381
    -1.3219  -1.2660  -1.1165  -1.0625  -0.5588  -0.3904  -0.0488  -0.0089
     0.0422   0.1211   0.2341   0.2996   0.5204   0.5721   0.6068   0.6395
     0.8583   0.9586   1.0660   1.0932   1.2050   1.2248   1.3520   1.4854
     1.5503   1.6065   1.7518   1.8088   1.9429   2.0006   2.0517   2.0959
     2.2556   2.3119   2.3469   2.4097   2.5666   2.6741   2.8623   2.8905
     2.9862   3.1137   3.2039   3.2923   3.3447   3.5074   3.5604   3.5850
     3.6596   3.6908   3.7704   3.9012   3.9891   4.1155   4.3967   4.4322
     9.3554  10.5515  10.8266  11.2132  11.4935  12.0061  12.2806  12.3204
    12.4556  12.6673

     occupation numbers 
     1.0000   1.0000   1.0000   1.0000   1.0000   1.0000   1.0000   1.0000
     1.0000   1.0000   1.0000   1.0000   1.0000   1.0000   1.0000   1.0000
     1.0000   1.0000   1.0000   1.0000   1.0000   1.0000   1.0000   1.0000
     1.0000   1.0000   1.0000   1.0000   1.0000   1.0000   1.0000   1.0000
     1.0000   1.0000   1.0000   1.0000   1.0000   1.0000   1.0000   1.0000
     1.0000   1.0000   1.0000   1.0000   1.0000   1.0000   1.0000   1.0000
     1.0000   1.0000   1.0000   1.0000   1.0000   1.0000   1.0000   1.0000
     1.0000   1.0000   1.0000   1.0000   1.0000   1.0000   1.0000   1.0000
     1.0000   1.0000   1.0000   1.0000   1.0000   1.0000   1.0000   1.0000
     1.0000   1.0000   1.0000   1.0000   1.0000   1.0000   1.0000   1.0000
     1.0000   1.0000   1.0000   1.0000   1.0000   1.0000   1.0000   1.0000
     1.0000   1.0000   1.0000   1.0000   1.0000   1.0000   1.0000   1.0000
     1.0000   1.0000   1.0000   1.0000   1.0000   1.0000   1.0000   1.0000
     0.0000   0.0000   0.0000   0.0000   0.0000   0.0000   0.0000   0.0000
     0.0000   0.0000

          k = 0.0000 0.0000 0.9661 ( 37764 PWs)   bands (ev):

   -85.4959 -85.4939 -85.4889 -85.4885 -51.7002 -51.6999 -51.5943 -51.5922
   -51.4898 -51.4879 -51.4260 -51.4257 -51.3992 -51.3973 -51.3296 -51.3292
   -45.5695 -17.7201 -17.5802 -17.5150 -16.3045 -16.1440 -16.1324 -15.9839
   -14.1865 -14.1469 -13.9397 -13.9288 -13.8854 -13.8782 -13.6683 -13.6196
   -13.5175 -13.4614 -13.4598 -13.3921  -4.3973  -4.2196  -3.7573  -3.6407
    -2.3876  -2.1836  -1.9756  -1.8841  -1.7253  -1.6055  -1.4769  -1.3541
    -1.2780  -1.2689  -1.0868  -1.0689  -0.5665  -0.3579  -0.0250   0.0176
     0.1134   0.1592   0.3158   0.3348   0.4630   0.5475   0.6103   0.7111
     0.8677   0.8742   0.9677   1.0746   1.1058   1.1416   1.2782   1.5020
     1.5548   1.5834   1.7141   1.7677   1.9300   1.9479   2.0092   2.1282
     2.2282   2.2599   2.3531   2.4193   2.5411   2.7430   2.8287   2.9406
     3.0020   3.0651   3.1838   3.2997   3.4120   3.5167   3.5548   3.6039
     3.6444   3.6733   3.7208   3.8834   3.9983   4.1382   4.3812   4.4329
     9.8664  10.4522  10.9097  11.2209  11.3251  12.1473  12.2012  12.2688
    12.4049  12.5709

     occupation numbers 
     1.0000   1.0000   1.0000   1.0000   1.0000   1.0000   1.0000   1.0000
     1.0000   1.0000   1.0000   1.0000   1.0000   1.0000   1.0000   1.0000
     1.0000   1.0000   1.0000   1.0000   1.0000   1.0000   1.0000   1.0000
     1.0000   1.0000   1.0000   1.0000   1.0000   1.0000   1.0000   1.0000
     1.0000   1.0000   1.0000   1.0000   1.0000   1.0000   1.0000   1.0000
     1.0000   1.0000   1.0000   1.0000   1.0000   1.0000   1.0000   1.0000
     1.0000   1.0000   1.0000   1.0000   1.0000   1.0000   1.0000   1.0000
     1.0000   1.0000   1.0000   1.0000   1.0000   1.0000   1.0000   1.0000
     1.0000   1.0000   1.0000   1.0000   1.0000   1.0000   1.0000   1.0000
     1.0000   1.0000   1.0000   1.0000   1.0000   1.0000   1.0000   1.0000
     1.0000   1.0000   1.0000   1.0000   1.0000   1.0000   1.0000   1.0000
     1.0000   1.0000   1.0000   1.0000   1.0000   1.0000   1.0000   1.0000
     1.0000   1.0000   1.0000   1.0000   1.0000   1.0000   1.0000   1.0000
     0.0000   0.0000   0.0000   0.0000   0.0000   0.0000   0.0000   0.0000
     0.0000   0.0000

          k = 0.0000 0.2470 0.0000 ( 37673 PWs)   bands (ev):

   -85.4959 -85.4939 -85.4889 -85.4885 -51.7002 -51.6999 -51.5943 -51.5921
   -51.4898 -51.4879 -51.4260 -51.4257 -51.3992 -51.3973 -51.3296 -51.3292
   -45.5695 -17.7218 -17.5809 -17.5137 -16.4130 -16.2363 -16.1965 -15.9578
   -14.1049 -14.0189 -13.9674 -13.9213 -13.8819 -13.8259 -13.5974 -13.5522
   -13.4914 -13.4720 -13.4331 -13.3685  -4.5890  -4.2918  -3.7977  -3.7319
    -2.4770  -2.4431  -2.0186  -1.9052  -1.7371  -1.6258  -1.5562  -1.3663
    -1.3139  -1.2471  -1.1405  -1.0678  -0.5428  -0.5023  -0.1365  -0.1164
     0.0774   0.1200   0.1950   0.2390   0.4527   0.5014   0.6482   0.7497
     0.9285   1.0011   1.0300   1.1424   1.2823   1.2961   1.4460   1.5256
     1.6343   1.7203   1.8100   1.8427   1.9021   1.9711   2.0825   2.1398
     2.2518   2.4527   2.4742   2.4935   2.6133   2.7157   2.8034   2.9197
     2.9670   3.1032   3.2275   3.3094   3.3760   3.4449   3.5446   3.6092
     3.6868   3.7601   3.8387   3.9068   4.0486   4.1705   4.4060   4.4643
     8.4944  10.2491  10.6696  10.9569  11.4869  12.2834  12.4007  12.5561
    12.6046  12.7508

     occupation numbers 
     1.0000   1.0000   1.0000   1.0000   1.0000   1.0000   1.0000   1.0000
     1.0000   1.0000   1.0000   1.0000   1.0000   1.0000   1.0000   1.0000
     1.0000   1.0000   1.0000   1.0000   1.0000   1.0000   1.0000   1.0000
     1.0000   1.0000   1.0000   1.0000   1.0000   1.0000   1.0000   1.0000
     1.0000   1.0000   1.0000   1.0000   1.0000   1.0000   1.0000   1.0000
     1.0000   1.0000   1.0000   1.0000   1.0000   1.0000   1.0000   1.0000
     1.0000   1.0000   1.0000   1.0000   1.0000   1.0000   1.0000   1.0000
     1.0000   1.0000   1.0000   1.0000   1.0000   1.0000   1.0000   1.0000
     1.0000   1.0000   1.0000   1.0000   1.0000   1.0000   1.0000   1.0000
     1.0000   1.0000   1.0000   1.0000   1.0000   1.0000   1.0000   1.0000
     1.0000   1.0000   1.0000   1.0000   1.0000   1.0000   1.0000   1.0000
     1.0000   1.0000   1.0000   1.0000   1.0000   1.0000   1.0000   1.0000
     1.0000   1.0000   1.0000   1.0000   1.0000   1.0000   1.0000   1.0000
     0.0000   0.0000   0.0000   0.0000   0.0000   0.0000   0.0000   0.0000
     0.0000   0.0000

          k = 0.0000 0.2470 0.2415 ( 37679 PWs)   bands (ev):

   -85.4959 -85.4939 -85.4889 -85.4885 -51.7002 -51.6999 -51.5943 -51.5921
   -51.4898 -51.4879 -51.4260 -51.4257 -51.3992 -51.3973 -51.3296 -51.3292
   -45.5695 -17.7223 -17.5810 -17.5138 -16.3996 -16.2238 -16.1870 -15.9616
   -14.1161 -14.0353 -13.9590 -13.9285 -13.8795 -13.8362 -13.6123 -13.5550
   -13.5052 -13.4712 -13.4441 -13.3504  -4.5653  -4.2847  -3.8145  -3.6767
    -2.4653  -2.4132  -2.0351  -1.9022  -1.7090  -1.6182  -1.5335  -1.3885
    -1.2977  -1.2685  -1.1772  -1.0148  -0.5328  -0.4903  -0.1166  -0.0895
     0.0476   0.1128   0.2071   0.2857   0.4148   0.4874   0.6309   0.6953
     0.8129   1.0097   1.0501   1.1292   1.2273   1.3780   1.4679   1.5174
     1.6363   1.7689   1.8073   1.8494   1.8897   1.9745   2.1035   2.1633
     2.2281   2.4258   2.4590   2.4941   2.5905   2.6915   2.8025   2.8834
     2.9262   3.0965   3.2204   3.3414   3.3558   3.4531   3.5249   3.5953
     3.6778   3.7583   3.8697   3.9005   4.0612   4.1468   4.4081   4.4713
     8.6201  10.3106  10.7144  10.9751  11.5734  12.2115  12.4158  12.5074
    12.6440  12.7097

     occupation numbers 
     1.0000   1.0000   1.0000   1.0000   1.0000   1.0000   1.0000   1.0000
     1.0000   1.0000   1.0000   1.0000   1.0000   1.0000   1.0000   1.0000
     1.0000   1.0000   1.0000   1.0000   1.0000   1.0000   1.0000   1.0000
     1.0000   1.0000   1.0000   1.0000   1.0000   1.0000   1.0000   1.0000
     1.0000   1.0000   1.0000   1.0000   1.0000   1.0000   1.0000   1.0000
     1.0000   1.0000   1.0000   1.0000   1.0000   1.0000   1.0000   1.0000
     1.0000   1.0000   1.0000   1.0000   1.0000   1.0000   1.0000   1.0000
     1.0000   1.0000   1.0000   1.0000   1.0000   1.0000   1.0000   1.0000
     1.0000   1.0000   1.0000   1.0000   1.0000   1.0000   1.0000   1.0000
     1.0000   1.0000   1.0000   1.0000   1.0000   1.0000   1.0000   1.0000
     1.0000   1.0000   1.0000   1.0000   1.0000   1.0000   1.0000   1.0000
     1.0000   1.0000   1.0000   1.0000   1.0000   1.0000   1.0000   1.0000
     1.0000   1.0000   1.0000   1.0000   1.0000   1.0000   1.0000   1.0000
     0.0000   0.0000   0.0000   0.0000   0.0000   0.0000   0.0000   0.0000
     0.0000   0.0000

          k = 0.0000 0.2470 0.4830 ( 37698 PWs)   bands (ev):

   -85.4959 -85.4939 -85.4889 -85.4885 -51.7002 -51.6999 -51.5943 -51.5921
   -51.4898 -51.4879 -51.4260 -51.4257 -51.3992 -51.3973 -51.3296 -51.3292
   -45.5695 -17.7224 -17.5810 -17.5143 -16.3646 -16.1974 -16.1637 -15.9687
   -14.1436 -14.0665 -13.9592 -13.9454 -13.8726 -13.8488 -13.6483 -13.5780
   -13.5080 -13.4672 -13.4493 -13.3508  -4.4970  -4.2562  -3.8128  -3.6139
    -2.4414  -2.3339  -2.0108  -1.9189  -1.6946  -1.6143  -1.4480  -1.4134
    -1.3043  -1.2630  -1.1790  -1.0019  -0.5594  -0.4437  -0.0871  -0.0502
     0.0195   0.1113   0.2321   0.2827   0.4378   0.4801   0.6012   0.6775
     0.7317   0.9722   1.0435   1.1361   1.1957   1.3543   1.4571   1.5077
     1.6481   1.6986   1.7815   1.8543   1.9273   1.9940   2.1133   2.1674
     2.2250   2.3324   2.4055   2.4825   2.5749   2.6011   2.7921   2.8714
     2.9353   3.0822   3.2399   3.2555   3.4002   3.4715   3.5024   3.5853
     3.6364   3.7536   3.8549   3.9521   4.0583   4.1200   4.4119   4.4753
     8.9690  10.4656  10.8102  11.0523  11.7178  12.0612  12.3129  12.4300
    12.5533  12.7076

     occupation numbers 
     1.0000   1.0000   1.0000   1.0000   1.0000   1.0000   1.0000   1.0000
     1.0000   1.0000   1.0000   1.0000   1.0000   1.0000   1.0000   1.0000
     1.0000   1.0000   1.0000   1.0000   1.0000   1.0000   1.0000   1.0000
     1.0000   1.0000   1.0000   1.0000   1.0000   1.0000   1.0000   1.0000
     1.0000   1.0000   1.0000   1.0000   1.0000   1.0000   1.0000   1.0000
     1.0000   1.0000   1.0000   1.0000   1.0000   1.0000   1.0000   1.0000
     1.0000   1.0000   1.0000   1.0000   1.0000   1.0000   1.0000   1.0000
     1.0000   1.0000   1.0000   1.0000   1.0000   1.0000   1.0000   1.0000
     1.0000   1.0000   1.0000   1.0000   1.0000   1.0000   1.0000   1.0000
     1.0000   1.0000   1.0000   1.0000   1.0000   1.0000   1.0000   1.0000
     1.0000   1.0000   1.0000   1.0000   1.0000   1.0000   1.0000   1.0000
     1.0000   1.0000   1.0000   1.0000   1.0000   1.0000   1.0000   1.0000
     1.0000   1.0000   1.0000   1.0000   1.0000   1.0000   1.0000   1.0000
     0.0000   0.0000   0.0000   0.0000   0.0000   0.0000   0.0000   0.0000
     0.0000   0.0000

          k = 0.0000 0.2470 0.7246 ( 37707 PWs)   bands (ev):

   -85.4959 -85.4939 -85.4889 -85.4885 -51.7002 -51.6999 -51.5943 -51.5922
   -51.4898 -51.4879 -51.4260 -51.4257 -51.3992 -51.3973 -51.3296 -51.3292
   -45.5695 -17.7222 -17.5810 -17.5147 -16.3221 -16.1652 -16.1362 -15.9821
   -14.1767 -14.1078 -13.9642 -13.9515 -13.8785 -13.8600 -13.6643 -13.6088
   -13.5098 -13.4635 -13.4507 -13.3675  -4.4148  -4.2178  -3.7873  -3.5889
    -2.4127  -2.2437  -1.9436  -1.9382  -1.6976  -1.6281  -1.4359  -1.3861
    -1.2862  -1.2559  -1.1355  -1.0335  -0.5819  -0.4078  -0.0451   0.0167
     0.0539   0.1141   0.2093   0.2643   0.5009   0.5135   0.5862   0.6756
     0.7641   0.9144   1.0068   1.0765   1.2003   1.2649   1.3339   1.4886
     1.5737   1.6334   1.7567   1.8732   1.9341   2.0290   2.0453   2.0985
     2.2369   2.3092   2.3177   2.4640   2.4989   2.6590   2.8062   2.9088
     2.9440   3.0887   3.1638   3.2709   3.3918   3.4559   3.5129   3.5939
     3.6402   3.7472   3.8153   3.9854   4.0285   4.1375   4.3987   4.4790
     9.4460  10.6354  10.8563  11.1772  11.5853  12.0766  12.2321  12.3525
    12.3987  12.7142

     occupation numbers 
     1.0000   1.0000   1.0000   1.0000   1.0000   1.0000   1.0000   1.0000
     1.0000   1.0000   1.0000   1.0000   1.0000   1.0000   1.0000   1.0000
     1.0000   1.0000   1.0000   1.0000   1.0000   1.0000   1.0000   1.0000
     1.0000   1.0000   1.0000   1.0000   1.0000   1.0000   1.0000   1.0000
     1.0000   1.0000   1.0000   1.0000   1.0000   1.0000   1.0000   1.0000
     1.0000   1.0000   1.0000   1.0000   1.0000   1.0000   1.0000   1.0000
     1.0000   1.0000   1.0000   1.0000   1.0000   1.0000   1.0000   1.0000
     1.0000   1.0000   1.0000   1.0000   1.0000   1.0000   1.0000   1.0000
     1.0000   1.0000   1.0000   1.0000   1.0000   1.0000   1.0000   1.0000
     1.0000   1.0000   1.0000   1.0000   1.0000   1.0000   1.0000   1.0000
     1.0000   1.0000   1.0000   1.0000   1.0000   1.0000   1.0000   1.0000
     1.0000   1.0000   1.0000   1.0000   1.0000   1.0000   1.0000   1.0000
     1.0000   1.0000   1.0000   1.0000   1.0000   1.0000   1.0000   1.0000
     0.0000   0.0000   0.0000   0.0000   0.0000   0.0000   0.0000   0.0000
     0.0000   0.0000

          k = 0.0000 0.2470 0.9661 ( 37706 PWs)   bands (ev):

   -85.4959 -85.4939 -85.4889 -85.4885 -51.7002 -51.6999 -51.5943 -51.5922
   -51.4898 -51.4879 -51.4260 -51.4257 -51.3992 -51.3973 -51.3296 -51.3292
   -45.5695 -17.7216 -17.5808 -17.5150 -16.2920 -16.1407 -16.1214 -15.9936
   -14.1995 -14.1389 -13.9614 -13.9495 -13.8900 -13.8729 -13.6680 -13.6155
   -13.5150 -13.4620 -13.4496 -13.3891  -4.3554  -4.1860  -3.7554  -3.6124
    -2.3786  -2.1893  -1.9477  -1.8839  -1.7192  -1.6298  -1.4748  -1.3686
    -1.2683  -1.2309  -1.0865  -1.0622  -0.5988  -0.3839  -0.0336   0.0471
     0.0750   0.1515   0.2096   0.3424   0.5432   0.5562   0.5775   0.6709
     0.8453   0.8534   0.9410   1.0396   1.1054   1.1541   1.2919   1.4842
     1.5569   1.6000   1.7019   1.7568   1.9496   1.9783   2.0285   2.1028
     2.2196   2.2490   2.3814   2.4180   2.5027   2.7283   2.8354   2.9003
     2.9447   3.0489   3.1773   3.3058   3.3548   3.4784   3.5196   3.6125
     3.6335   3.7242   3.7862   3.9613   4.0221   4.1806   4.3827   4.4802
     9.9243  10.5759  10.8847  11.2962  11.3549  12.1105  12.1782  12.3381
    12.4112  12.6260

     occupation numbers 
     1.0000   1.0000   1.0000   1.0000   1.0000   1.0000   1.0000   1.0000
     1.0000   1.0000   1.0000   1.0000   1.0000   1.0000   1.0000   1.0000
     1.0000   1.0000   1.0000   1.0000   1.0000   1.0000   1.0000   1.0000
     1.0000   1.0000   1.0000   1.0000   1.0000   1.0000   1.0000   1.0000
     1.0000   1.0000   1.0000   1.0000   1.0000   1.0000   1.0000   1.0000
     1.0000   1.0000   1.0000   1.0000   1.0000   1.0000   1.0000   1.0000
     1.0000   1.0000   1.0000   1.0000   1.0000   1.0000   1.0000   1.0000
     1.0000   1.0000   1.0000   1.0000   1.0000   1.0000   1.0000   1.0000
     1.0000   1.0000   1.0000   1.0000   1.0000   1.0000   1.0000   1.0000
     1.0000   1.0000   1.0000   1.0000   1.0000   1.0000   1.0000   1.0000
     1.0000   1.0000   1.0000   1.0000   1.0000   1.0000   1.0000   1.0000
     1.0000   1.0000   1.0000   1.0000   1.0000   1.0000   1.0000   1.0000
     1.0000   1.0000   1.0000   1.0000   1.0000   1.0000   1.0000   1.0000
     0.0000   0.0000   0.0000   0.0000   0.0000   0.0000   0.0000   0.0000
     0.0000   0.0000

          k = 0.0000 0.4940 0.0000 ( 37685 PWs)   bands (ev):

   -85.4959 -85.4939 -85.4889 -85.4885 -51.7002 -51.6999 -51.5943 -51.5921
   -51.4898 -51.4879 -51.4260 -51.4257 -51.3992 -51.3973 -51.3296 -51.3292
   -45.5695 -17.7265 -17.5826 -17.5136 -16.3667 -16.2416 -16.1674 -15.9926
   -14.1449 -14.0310 -13.9742 -13.9262 -13.9031 -13.8348 -13.5888 -13.5549
   -13.4991 -13.4682 -13.4317 -13.3326  -4.4914  -4.2015  -3.8286  -3.7340
    -2.4130  -2.3408  -1.9962  -1.8792  -1.7510  -1.6762  -1.5454  -1.3590
    -1.3245  -1.2162  -1.1463  -1.0407  -0.6115  -0.5301  -0.2797  -0.1619
     0.0396   0.1226   0.1401   0.2688   0.3871   0.4724   0.7174   0.7740
     0.8973   0.9794   1.0355   1.1353   1.3128   1.3632   1.3773   1.4980
     1.6001   1.6816   1.7234   1.8013   1.8719   2.0136   2.0497   2.2037
     2.2940   2.3712   2.4448   2.4867   2.5967   2.6592   2.8125   2.9120
     2.9524   3.0508   3.2364   3.2923   3.3428   3.4488   3.5294   3.5560
     3.7006   3.7499   3.8197   3.8913   4.2040   4.3043   4.4309   4.5374
     8.9158  10.3782  10.6908  10.9855  11.4169  12.1057  12.3490  12.5007
    12.6154  12.7323

     occupation numbers 
     1.0000   1.0000   1.0000   1.0000   1.0000   1.0000   1.0000   1.0000
     1.0000   1.0000   1.0000   1.0000   1.0000   1.0000   1.0000   1.0000
     1.0000   1.0000   1.0000   1.0000   1.0000   1.0000   1.0000   1.0000
     1.0000   1.0000   1.0000   1.0000   1.0000   1.0000   1.0000   1.0000
     1.0000   1.0000   1.0000   1.0000   1.0000   1.0000   1.0000   1.0000
     1.0000   1.0000   1.0000   1.0000   1.0000   1.0000   1.0000   1.0000
     1.0000   1.0000   1.0000   1.0000   1.0000   1.0000   1.0000   1.0000
     1.0000   1.0000   1.0000   1.0000   1.0000   1.0000   1.0000   1.0000
     1.0000   1.0000   1.0000   1.0000   1.0000   1.0000   1.0000   1.0000
     1.0000   1.0000   1.0000   1.0000   1.0000   1.0000   1.0000   1.0000
     1.0000   1.0000   1.0000   1.0000   1.0000   1.0000   1.0000   1.0000
     1.0000   1.0000   1.0000   1.0000   1.0000   1.0000   1.0000   1.0000
     1.0000   1.0000   1.0000   1.0000   1.0000   1.0000   1.0000   1.0000
     0.0000   0.0000   0.0000   0.0000   0.0000   0.0000   0.0000   0.0000
     0.0000   0.0000

          k = 0.0000 0.4940 0.2415 ( 37685 PWs)   bands (ev):

   -85.4959 -85.4939 -85.4889 -85.4885 -51.7002 -51.6999 -51.5943 -51.5921
   -51.4898 -51.4879 -51.4260 -51.4257 -51.3992 -51.3973 -51.3296 -51.3292
   -45.5695 -17.7269 -17.5827 -17.5138 -16.3549 -16.2294 -16.1544 -15.9974
   -14.1538 -14.0463 -13.9584 -13.9430 -13.9029 -13.8461 -13.6071 -13.5548
   -13.5114 -13.4658 -13.4339 -13.3247  -4.4697  -4.1967  -3.8298  -3.6810
    -2.3952  -2.3193  -2.0292  -1.8683  -1.7282  -1.6819  -1.5159  -1.3598
    -1.3006  -1.2536  -1.1784  -0.9909  -0.5964  -0.5364  -0.2494  -0.1364
     0.0567   0.0963   0.1964   0.2680   0.3634   0.4386   0.6789   0.7247
     0.7905   0.9226   1.0435   1.1236   1.2493   1.4152   1.4555   1.4962
     1.5988   1.7236   1.7740   1.8636   1.9044   1.9968   2.0611   2.1919
     2.2209   2.3464   2.4484   2.4687   2.5788   2.6967   2.7822   2.8523
     2.9555   2.9921   3.1902   3.2993   3.3776   3.4329   3.5069   3.5579
     3.6794   3.8055   3.8401   3.8896   4.2168   4.2817   4.4214   4.5527
     9.0177  10.4206  10.7351  11.0295  11.5289  12.0445  12.4294  12.4559
    12.6019  12.7430

     occupation numbers 
     1.0000   1.0000   1.0000   1.0000   1.0000   1.0000   1.0000   1.0000
     1.0000   1.0000   1.0000   1.0000   1.0000   1.0000   1.0000   1.0000
     1.0000   1.0000   1.0000   1.0000   1.0000   1.0000   1.0000   1.0000
     1.0000   1.0000   1.0000   1.0000   1.0000   1.0000   1.0000   1.0000
     1.0000   1.0000   1.0000   1.0000   1.0000   1.0000   1.0000   1.0000
     1.0000   1.0000   1.0000   1.0000   1.0000   1.0000   1.0000   1.0000
     1.0000   1.0000   1.0000   1.0000   1.0000   1.0000   1.0000   1.0000
     1.0000   1.0000   1.0000   1.0000   1.0000   1.0000   1.0000   1.0000
[...]
     atom    7 type  4   force =     0.01306965    0.00566017   -0.08953018
     atom    8 type  4   force =     0.05086856   -0.06903522   -0.05470895
     atom    9 type  4   force =    -0.01306965   -0.00566017    0.08953018
     atom   10 type  3   force =    -0.54468012   -0.31229667   -1.03399739
     atom   11 type  3   force =    -0.02846237    0.23395662   -1.50862277
     atom   12 type  3   force =     0.54468012    0.31229667    1.03399739
     atom   13 type  3   force =     0.02846237   -0.23395662    1.50862277
     atom   14 type  3   force =     1.40294553   -0.22131648   -0.62006713
     atom   15 type  3   force =    -1.37067922    0.25403686   -0.17575347
     atom   16 type  3   force =    -1.40294553    0.22131648    0.62006713
     atom   17 type  3   force =     1.37067922   -0.25403686    0.17575347
     atom   18 type  3   force =    -0.08795087   -1.37275164    0.84479400
     atom   19 type  3   force =     0.66135162    0.64691653    0.89945251
     atom   20 type  3   force =     0.03166991   -1.65132415   -0.97270058
     atom   21 type  3   force =    -0.10002764    0.99152722   -0.57373530
     atom   22 type  3   force =     0.08795087    1.37275164   -0.84479400
     atom   23 type  3   force =    -0.66135162   -0.64691653   -0.89945251
     atom   24 type  3   force =    -0.03166991    1.65132415    0.97270058
     atom   25 type  3   force =     0.10002764   -0.99152722    0.57373530
     The ionic contribution  to forces
     atom    1 type  2   force =     0.00058042    0.00043447    0.00017971
     atom    2 type  1   force =     9.29470491    5.22553925   -1.28347923
     atom    3 type  1   force =     4.03313294   -9.82700072   -2.55660441
     atom    4 type  1   force =    -9.29512168   -5.22548823    1.28333080
     atom    5 type  1   force =    -4.03354590    9.82668180    2.55667596
     atom    6 type  4   force =    -2.24332059    2.23944998   -1.92988056
     atom    7 type  4   force =     4.12571919   -0.99298952    1.06806051
     atom    8 type  4   force =     2.24338848   -2.23942930    1.92972241
     atom    9 type  4   force =    -4.12583665    0.99297581   -1.06794655
     atom   10 type  3   force =    -0.63981343    6.73565432    0.20969481
     atom   11 type  3   force =     7.44375106   -3.77440115    2.53331551
     atom   12 type  3   force =     0.64009887   -6.73543445   -0.20933088
     atom   13 type  3   force =    -7.44379527    3.77436150   -2.53349490
     atom   14 type  3   force =     0.70254551    1.31091296    7.12004197
     atom   15 type  3   force =     0.26983348   -2.77531273    4.79962449
     atom   16 type  3   force =    -0.70273298   -1.31090950   -7.12001012
     atom   17 type  3   force =    -0.26937924    2.77496873   -4.79998011
     atom   18 type  3   force =    -5.62827479    8.41713888    0.17887678
     atom   19 type  3   force =     2.65574817   -1.09195956   -3.35335053
     atom   20 type  3   force =     4.40171402    6.47822276    8.67575625
     atom   21 type  3   force =    -9.27573906   -0.69182030   -0.16309773
     atom   22 type  3   force =     5.62834137   -8.41714734   -0.17883517
     atom   23 type  3   force =    -2.65596704    1.09191964    3.35334996
     atom   24 type  3   force =    -4.40161275   -6.47822605   -8.67574109
     atom   25 type  3   force =     9.27558097    0.69185875    0.16312213
     The local contribution  to forces
     atom    1 type  2   force =     0.00340579    0.00008861   -0.00246339
     atom    2 type  1   force =    -9.36468257   -5.12275927    1.44621268
     atom    3 type  1   force =    -3.98621229    9.98272787    2.41505776
     atom    4 type  1   force =     9.34153204    5.11211945   -1.45488577
     atom    5 type  1   force =     3.96296454   -9.99469670   -2.42525609
     atom    6 type  4   force =     2.25538965   -2.28986448    1.88706914
     atom    7 type  4   force =    -4.08972012    0.97961877   -0.98883150
     atom    8 type  4   force =    -2.25546185    2.28964740   -1.88729539
     atom    9 type  4   force =     4.08987217   -0.97979118    0.98900264
     atom   10 type  3   force =     1.17185418   -6.43461208    0.80799773
     atom   11 type  3   force =    -7.42308516    3.54535045   -1.04233524
     atom   12 type  3   force =    -1.17614019    6.43223727   -0.80838628
     atom   13 type  3   force =     7.41749429   -3.54824346    1.03934005
     atom   14 type  3   force =    -2.03187780   -1.09935744   -6.51793452
     atom   15 type  3   force =     1.02741716    2.53387814   -4.62111737
     atom   16 type  3   force =     2.02793366    1.09670666    6.51591033
     atom   17 type  3   force =    -1.03110510   -2.53631023    4.61879586
     atom   18 type  3   force =     5.71444874   -7.06664298   -1.01900301
     atom   19 type  3   force =    -3.30404302    0.45504848    2.46754464
     atom   20 type  3   force =    -4.44074985   -4.83851111   -7.71906669
     atom   21 type  3   force =     9.37446048   -0.29064460    0.73447974
     atom   22 type  3   force =    -5.71968768    7.06401185    1.01590856
     atom   23 type  3   force =     3.29861623   -0.45700718   -2.46988017
     atom   24 type  3   force =     4.43553238    4.83631648    7.71756064
     atom   25 type  3   force =    -9.37967320    0.28843594   -0.73627360
     The core correction contribution to forces
     atom    1 type  2   force =     0.00000000    0.00000000    0.00000000
     atom    2 type  1   force =    -0.00195492    0.00097012    0.00045721
     atom    3 type  1   force =     0.00185967   -0.00029644    0.00045140
     atom    4 type  1   force =     0.00273337   -0.00058080   -0.00014339
     atom    5 type  1   force =    -0.00106986    0.00066337   -0.00009463
     atom    6 type  4   force =     0.00576258   -0.00471924   -0.00357967
     atom    7 type  4   force =    -0.00265693    0.00017042    0.00610939
     atom    8 type  4   force =    -0.00574788    0.00472738    0.00358876
     atom    9 type  4   force =     0.00267383   -0.00016456   -0.00610404
     atom   10 type  3   force =     0.00460472    0.00285299    0.00912390
     atom   11 type  3   force =     0.00105487   -0.00243954    0.01321243
     atom   12 type  3   force =    -0.00460964   -0.00285503   -0.00912822
     atom   13 type  3   force =    -0.00105783    0.00243760   -0.01321456
     atom   14 type  3   force =    -0.01300335    0.00213733    0.00632039
     atom   15 type  3   force =     0.01245690   -0.00259370    0.00204203
     atom   16 type  3   force =     0.01299402   -0.00213809   -0.00632214
     atom   17 type  3   force =    -0.01246404    0.00259303   -0.00204224
     atom   18 type  3   force =     0.00017277    0.01264412   -0.00731199
     atom   19 type  3   force =    -0.00597471   -0.00543046   -0.00823354
     atom   20 type  3   force =    -0.00001072    0.01444692    0.00920047
     atom   21 type  3   force =     0.00074871   -0.00865745    0.00522031
     atom   22 type  3   force =    -0.00017748   -0.01264675    0.00731274
     atom   23 type  3   force =     0.00596822    0.00542571    0.00822819
     atom   24 type  3   force =     0.00000665   -0.01444812   -0.00920351
     atom   25 type  3   force =    -0.00075293    0.00865651   -0.00522372
     The Hubbard contrib.    to forces
     atom    1 type  2   force =     0.00000000    0.00000000    0.00000000
     atom    2 type  1   force =     0.00000000    0.00000000    0.00000000
     atom    3 type  1   force =     0.00000000    0.00000000    0.00000000
     atom    4 type  1   force =     0.00000000    0.00000000    0.00000000
     atom    5 type  1   force =     0.00000000    0.00000000    0.00000000
     atom    6 type  4   force =     0.00000000    0.00000000    0.00000000
     atom    7 type  4   force =     0.00000000    0.00000000    0.00000000
     atom    8 type  4   force =     0.00000000    0.00000000    0.00000000
     atom    9 type  4   force =     0.00000000    0.00000000    0.00000000
     atom   10 type  3   force =     0.00000000    0.00000000    0.00000000
     atom   11 type  3   force =     0.00000000    0.00000000    0.00000000
     atom   12 type  3   force =     0.00000000    0.00000000    0.00000000
     atom   13 type  3   force =     0.00000000    0.00000000    0.00000000
     atom   14 type  3   force =     0.00000000    0.00000000    0.00000000
     atom   15 type  3   force =     0.00000000    0.00000000    0.00000000
     atom   16 type  3   force =     0.00000000    0.00000000    0.00000000
     atom   17 type  3   force =     0.00000000    0.00000000    0.00000000
     atom   18 type  3   force =     0.00000000    0.00000000    0.00000000
     atom   19 type  3   force =     0.00000000    0.00000000    0.00000000
     atom   20 type  3   force =     0.00000000    0.00000000    0.00000000
     atom   21 type  3   force =     0.00000000    0.00000000    0.00000000
     atom   22 type  3   force =     0.00000000    0.00000000    0.00000000
     atom   23 type  3   force =     0.00000000    0.00000000    0.00000000
     atom   24 type  3   force =     0.00000000    0.00000000    0.00000000
     atom   25 type  3   force =     0.00000000    0.00000000    0.00000000
     The SCF correction term to forces
     atom    1 type  2   force =     0.00000000    0.00000000   -0.00000000
     atom    2 type  1   force =    -0.00000861   -0.00000319   -0.00000206
     atom    3 type  1   force =    -0.00001053   -0.00000024   -0.00000061
     atom    4 type  1   force =     0.00000859    0.00000318    0.00000205
     atom    5 type  1   force =     0.00001050    0.00000023    0.00000060
     atom    6 type  4   force =    -0.00000170   -0.00000078    0.00000087
     atom    7 type  4   force =    -0.00000406    0.00000107   -0.00000060
     atom    8 type  4   force =     0.00000170    0.00000078   -0.00000087
     atom    9 type  4   force =     0.00000406   -0.00000107    0.00000060
     atom   10 type  3   force =    -0.00000351   -0.00000367   -0.00000161
     atom   11 type  3   force =    -0.00000654    0.00000193    0.00000425
     atom   12 type  3   force =     0.00000351    0.00000367    0.00000161
     atom   13 type  3   force =     0.00000653   -0.00000193   -0.00000425
     atom   14 type  3   force =    -0.00000065   -0.00000068    0.00000033
     atom   15 type  3   force =     0.00000350    0.00000132   -0.00000199
     atom   16 type  3   force =     0.00000065    0.00000068   -0.00000033
     atom   17 type  3   force =    -0.00000350   -0.00000132    0.00000199
     atom   18 type  3   force =    -0.00000561    0.00000031    0.00000238
     atom   19 type  3   force =    -0.00000639    0.00000434   -0.00000348
     atom   20 type  3   force =     0.00000091    0.00000286   -0.00000198
     atom   21 type  3   force =     0.00000648    0.00000107    0.00000445
     atom   22 type  3   force =     0.00000561   -0.00000031   -0.00000238
     atom   23 type  3   force =     0.00000639   -0.00000434    0.00000348
     atom   24 type  3   force =    -0.00000091   -0.00000286    0.00000198
     atom   25 type  3   force =    -0.00000648   -0.00000107   -0.00000445

     Total force =     0.155243     Total SCF correction =     0.000032


     Computing stress (Cartesian axis) and pressure


     negative rho (up, down):  0.000E+00 8.723E-04
          total   stress  (Ry/bohr**3)                   (kbar)     P=      -32.40
  -0.00088486   0.00016486  -0.00002719         -130.17       24.25       -4.00
   0.00016486   0.00020633   0.00004205           24.25       30.35        6.19
  -0.00002719   0.00004205   0.00001777           -4.00        6.19        2.61

     kinetic stress (kbar)  25458.57     98.53    -49.50
                               98.53  25674.14      5.35
                              -49.50      5.35  25699.35

     local   stress (kbar)  -7644.83   3624.59  -8040.95
                             3624.59 -15111.47  -1432.22
                            -8040.95  -1432.22  -5372.07

     nonloc. stress (kbar)  -6502.34      5.71    -11.24
                                5.71  -6479.37     -9.87
                              -11.24     -9.87  -6479.33

     hartree stress (kbar)  13820.45  -1353.01   3382.60
                            -1353.01  17430.13    637.52
                             3382.60    637.52  13354.76

     exc-cor stress (kbar)  -2704.88     -3.11      3.59
                               -3.11  -2707.30     -0.23
                                3.59     -0.23  -2709.14

     corecor stress (kbar)  -3013.16      0.11     -0.27
                                0.11  -3014.89      1.17
                               -0.27      1.17  -3014.05

     ewald   stress (kbar) -19543.98  -2348.57   4711.76
                            -2348.57 -15760.89    804.46
                             4711.76    804.46 -21476.91

     hubbard stress (kbar)      0.00      0.00      0.00
                                0.00      0.00      0.00
                                0.00      0.00      0.00

     DFT-D   stress (kbar)      0.00      0.00      0.00
                                0.00      0.00      0.00
                                0.00      0.00      0.00

     XDM     stress (kbar)      0.00      0.00      0.00
                                0.00      0.00      0.00
                                0.00      0.00      0.00

     dft-nl  stress (kbar)      0.00      0.00      0.00
                                0.00      0.00      0.00
                                0.00      0.00      0.00

     TS-vdW  stress (kbar)      0.00      0.00      0.00
                                0.00      0.00      0.00
                                0.00      0.00      0.00



     init_run     :   1162.03s CPU   1332.29s WALL (       1 calls)
     electrons    :  82100.02s CPU  94193.58s WALL (       1 calls)
     forces       :    149.62s CPU    168.69s WALL (       1 calls)
     stress       :    704.26s CPU    805.46s WALL (       1 calls)

     Called by init_run:
     wfcinit      :   1144.23s CPU   1310.58s WALL (       1 calls)
     wfcinit:atom :      0.68s CPU      0.77s WALL (     316 calls)
     wfcinit:wfcr :   1138.83s CPU   1304.33s WALL (     316 calls)
     potinit      :      8.78s CPU     10.37s WALL (       1 calls)
     hinit0       :      4.78s CPU      5.82s WALL (       1 calls)

     Called by electrons:
     c_bands      :  68956.61s CPU  79135.89s WALL (      29 calls)
     sum_band     :  12919.68s CPU  14796.02s WALL (      29 calls)
     v_of_rho     :     77.51s CPU     90.64s WALL (      30 calls)
     v_h          :      7.14s CPU      8.44s WALL (      30 calls)
     v_xc         :     76.51s CPU     89.50s WALL (      32 calls)
     newd         :     61.70s CPU     73.43s WALL (      30 calls)
     PAW_pot      :     17.06s CPU     19.41s WALL (      30 calls)
     mix_rho      :     56.07s CPU     65.48s WALL (      29 calls)

     Called by c_bands:
     init_us_2    :     56.88s CPU     62.07s WALL (   19276 calls)
     cegterg      :  68253.02s CPU  78286.62s WALL (    9164 calls)

     Called by sum_band:
     sum_band:wei :      0.53s CPU      0.62s WALL (      29 calls)
     sum_band:loo :  12803.94s CPU  14659.41s WALL (      29 calls)
     sum_band:buf :     13.64s CPU     14.32s WALL (    9164 calls)
     sum_band:ini :     22.13s CPU     23.31s WALL (    9164 calls)
     sum_band:cal :    909.08s CPU   1050.45s WALL (    9164 calls)
     sum_band:bec :      2.19s CPU      2.20s WALL (    9164 calls)
     addusdens    :     69.83s CPU     84.20s WALL (      29 calls)
     addusd:skk   :      0.63s CPU      0.72s WALL (      87 calls)
     addusd:dgemm :      5.44s CPU      8.82s WALL (     174 calls)
     addusd:qvan2 :     63.08s CPU     73.80s WALL (     174 calls)

     Called by *egterg:
     cdiaghg      :   1172.44s CPU   1370.91s WALL (   35880 calls)
     cegterg:over :   4062.26s CPU   4661.40s WALL (   26716 calls)
     cegterg:upda :    170.88s CPU    187.95s WALL (   26716 calls)
     cegterg:last :    367.54s CPU    419.10s WALL (   17055 calls)
     h_psi        :  60099.94s CPU  68926.08s WALL (   36196 calls)
     s_psi        :    340.38s CPU    399.55s WALL (   36196 calls)
     g_psi        :     19.10s CPU     23.62s WALL (   26716 calls)

     Called by h_psi:
     h_psi:calbec :   3012.01s CPU   3482.69s WALL (   36196 calls)
     vloc_psi     :  56687.57s CPU  64981.06s WALL (   36196 calls)
     add_vuspsi   :    359.72s CPU    417.77s WALL (   36196 calls)

     General routines
     calbec       :   4199.88s CPU   4846.65s WALL (   46940 calls)
     fft          :    114.00s CPU    131.48s WALL (     788 calls)
     ffts         :      2.97s CPU      3.30s WALL (     118 calls)
     fftw         :  67901.89s CPU  77895.83s WALL ( 6059244 calls)
     interpolate  :     10.79s CPU     12.23s WALL (      60 calls)

     Parallel routines
     fft_scatt_xy :    293.50s CPU    297.08s WALL ( 6060150 calls)
     fft_scatt_yz :  66570.83s CPU  76561.31s WALL ( 6060150 calls)

     PAW routines
     PAW_pot      :     17.06s CPU     19.41s WALL (      30 calls)
     PAW_symme    :      5.16s CPU      5.89s WALL (      59 calls)

     PWSCF        :     23h22m CPU   1d 2h48m WALL


   This run was terminated on:   0:16:48  27Jan2023            

=------------------------------------------------------------------------------=
   JOB DONE.
=------------------------------------------------------------------------------=
Note: The following floating-point exceptions are signalling: IEEE_UNDERFLOW_FLAG IEEE_DENORMAL
Note: The following floating-point exceptions are signalling: IEEE_DENORMAL
Note: The following floating-point exceptions are signalling: IEEE_INVALID_FLAG IEEE_DENORMAL
Note: The following floating-point exceptions are signalling: IEEE_DENORMAL
Note: The following floating-point exceptions are signalling: IEEE_DENORMAL
Note: The following floating-point exceptions are signalling: IEEE_DENORMAL
Note: The following floating-point exceptions are signalling: IEEE_INVALID_FLAG IEEE_DENORMAL
Note: The following floating-point exceptions are signalling: IEEE_DENORMAL
Note: The following floating-point exceptions are signalling: IEEE_INVALID_FLAG IEEE_DENORMAL
Note: The following floating-point exceptions are signalling: IEEE_DENORMAL
Note: The following floating-point exceptions are signalling: IEEE_DENORMAL
Note: The following floating-point exceptions are signalling: IEEE_DENORMAL
Note: The following floating-point exceptions are signalling: IEEE_DENORMAL
Note: The following floating-point exceptions are signalling: IEEE_INVALID_FLAG IEEE_DENORMAL
Note: The following floating-point exceptions are signalling: IEEE_DENORMAL
Note: The following floating-point exceptions are signalling: IEEE_DENORMAL
Note: The following floating-point exceptions are signalling: IEEE_DENORMAL
Note: The following floating-point exceptions are signalling: IEEE_DENORMAL
Note: The following floating-point exceptions are signalling: IEEE_DENORMAL
Note: The following floating-point exceptions are signalling: IEEE_DENORMAL
Note: The following floating-point exceptions are signalling: IEEE_DENORMAL
Note: The following floating-point exceptions are signalling: IEEE_DENORMAL
Note: The following floating-point exceptions are signalling: IEEE_DENORMAL
Note: The following floating-point exceptions are signalling: IEEE_INVALID_FLAG IEEE_DENORMAL
Note: The following floating-point exceptions are signalling: IEEE_DENORMAL
Note: The following floating-point exceptions are signalling: IEEE_DENORMAL
Note: The following floating-point exceptions are signalling: IEEE_DENORMAL
Note: The following floating-point exceptions are signalling: IEEE_DENORMAL
Note: The following floating-point exceptions are signalling: IEEE_INVALID_FLAG IEEE_DENORMAL
Note: The following floating-point exceptions are signalling: IEEE_DENORMAL
Note: The following floating-point exceptions are signalling: IEEE_DENORMAL
