
     Program PWSCF v.6.7MaX starts on 14Jan2023 at  7: 9:56 

     This program is part of the open-source Quantum ESPRESSO suite
     for quantum simulation of materials; please cite
         "P. Giannozzi et al., J. Phys.:Condens. Matter 21 395502 (2009);
         "P. Giannozzi et al., J. Phys.:Condens. Matter 29 465901 (2017);
          URL http://www.quantum-espresso.org", 
     in publications or presentations arising from this work. More details at
     http://www.quantum-espresso.org/quote

     Parallel version (MPI), running on    16 processors

     MPI processes distributed on     1 nodes
     R & G space division:  proc/nbgrp/npool/nimage =      16
     Reading input from scale_1da-02.in

     Current dimensions of program PWSCF are:
     Max number of different atomic species (ntypx) = 10
     Max number of k-points (npk) =  40000
     Max angular momentum in pseudopotentials (lmaxx) =  3
     Message from routine read_pp_mesh:
     mesh size missing, using the one in header
     file Fe.pbe-spn-kjpaw_psl.0.2.1.UPF: wavefunction(s)  3D renormalized
     file O.pbe-n-kjpaw_psl.0.1.UPF: wavefunction(s)  2P renormalized

     Subspace diagonalization in iterative solution of the eigenvalue problem:
     a serial algorithm will be used


     Parallelization info
     --------------------
     sticks:   dense  smooth     PW     G-vecs:    dense   smooth      PW
     Min        1221     451    122                79591    17941    2524
     Max        1222     453    123                79592    17942    2527
     Sum       19549    7233   1959              1273469   287059   40409



     bravais-lattice index     =            0
     lattice parameter (alat)  =      19.3373  a.u.
     unit-cell volume          =    2124.3518 (a.u.)^3
     number of atoms/cell      =           25
     number of atomic types    =            4
     number of electrons       =       189.00
     number of Kohn-Sham states=          114
     kinetic-energy cutoff     =     100.0000  Ry
     charge density cutoff     =    1080.0000  Ry
     scf convergence threshold =      2.0E-10
     mixing beta               =       0.4000
     number of iterations used =            8  plain     mixing
     Exchange-correlation= PBE
                           (   1   4   3   4   0   0   0)

     celldm(1)=  19.337306  celldm(2)=   0.000000  celldm(3)=   0.000000
     celldm(4)=   0.000000  celldm(5)=   0.000000  celldm(6)=   0.000000

     crystal axes: (cart. coord. in units of alat)
               a(1) = (   1.000000   0.000000   0.000000 )  
               a(2) = (   0.000000   0.607719   0.000000 )  
               a(3) = (   0.000000   0.000000   0.483433 )  

     reciprocal axes: (cart. coord. in units 2 pi/alat)
               b(1) = (  1.000000  0.000000  0.000000 )  
               b(2) = (  0.000000  1.645499  0.000000 )  
               b(3) = (  0.000000  0.000000  2.068540 )  


     PseudoPot. # 1 for Fe read from file:
     /opt/QEpot/SSSP_precision_pseudos/Fe.pbe-spn-kjpaw_psl.0.2.1.UPF
     MD5 check sum: e86618425769142926afa95317d90200
     Pseudo is Projector augmented-wave + core cor, Zval = 16.0
     Generated using "atomic" code by A. Dal Corso  v.5.0.99 svn rev. 10869
     Shape of augmentation charge: PSQ
     Using radial grid of 1191 points,  6 beta functions with: 
                l(1) =   0
                l(2) =   0
                l(3) =   1
                l(4) =   1
                l(5) =   2
                l(6) =   2
     Q(r) pseudized with 0 coefficients 


     PseudoPot. # 2 for Na read from file:
     /opt/QEpot/SSSP_precision_pseudos/Na_ONCV_PBE-1.0.oncvpsp.upf
     MD5 check sum: 24a298df0a6742ae313db96548fdb2a4
     Pseudo is Norm-conserving, Zval =  9.0
     Generated using ONCVPSP code by D. R. Hamann
     Using radial grid of 1992 points,  4 beta functions with: 
                l(1) =   0
                l(2) =   0
                l(3) =   1
                l(4) =   1

     PseudoPot. # 3 for O  read from file:
     /opt/QEpot/SSSP_precision_pseudos/O.pbe-n-kjpaw_psl.0.1.UPF
     MD5 check sum: 0234752ac141de4415c5fc33072bef88
     Pseudo is Projector augmented-wave + core cor, Zval =  6.0
     Generated using "atomic" code by A. Dal Corso  v.5.0.99 svn rev. 10869
     Shape of augmentation charge: BESSEL
     Using radial grid of 1095 points,  4 beta functions with: 
                l(1) =   0
                l(2) =   0
                l(3) =   1
                l(4) =   1
     Q(r) pseudized with 0 coefficients 


     PseudoPot. # 4 for P  read from file:
     /opt/QEpot/SSSP_precision_pseudos/P.pbe-n-rrkjus_psl.1.0.0.UPF
     MD5 check sum: 8b930f418f0a4573dca56cd030ffe088
     Pseudo is Ultrasoft + core correction, Zval =  5.0
     Generated using "atomic" code by A. Dal Corso  v.5.1
     Using radial grid of 1147 points,  6 beta functions with: 
                l(1) =   0
                l(2) =   0
                l(3) =   1
                l(4) =   1
                l(5) =   2
                l(6) =   2
     Q(r) pseudized with 0 coefficients 


     atomic species   valence    mass     pseudopotential
        Fe            16.00    55.84500     Fe( 1.00)
        Na             9.00    22.98977     Na( 1.00)
        O              6.00    15.99940     O ( 1.00)
        P              5.00    30.97376     P ( 1.00)

     Starting magnetic structure 
     atomic species   magnetization
        Fe           0.312
        Na           0.000
        O            0.000
        P            0.000

     No symmetry found


                                    s                        frac. trans.

      isym =  1     identity                                     

 cryst.   s( 1) = (     1          0          0      )
                  (     0          1          0      )
                  (     0          0          1      )

 cart.    s( 1) = (  1.0000000  0.0000000  0.0000000 )
                  (  0.0000000  1.0000000  0.0000000 )
                  (  0.0000000  0.0000000  1.0000000 )


   Cartesian axes

     site n.     atom                  positions (alat units)
         1           Na  tau(   1) = (   0.9999980   0.0000000   0.2417178  )
         2           Fe  tau(   2) = (   0.2996860   0.4699427   0.4120892  )
         3           Fe  tau(   3) = (   0.2274400   0.2060701   0.2463805  )
         4           Fe  tau(   4) = (   0.7003200   0.1377789   0.0713460  )
         5           Fe  tau(   5) = (   0.7725660   0.4016515   0.2370551  )
         6           P   tau(   6) = (   0.0937970   0.3970882   0.1291529  )
         7           P   tau(   7) = (   0.3977930   0.1527969   0.4572572  )
         8           P   tau(   8) = (   0.9062090   0.2106334   0.3542846  )
         9           P   tau(   9) = (   0.6022130   0.4549247   0.0261774  )
        10           O   tau(  10) = (   0.1764850   0.4171477   0.2584248  )
        11           O   tau(  11) = (   0.3589780   0.1524438   0.1185561  )
        12           O   tau(  12) = (   0.8235200   0.1905739   0.2250094  )
        13           O   tau(  13) = (   0.6410280   0.4552778   0.3648800  )
        14           O   tau(  14) = (   0.4562740   0.4719184   0.0421984  )
        15           O   tau(  15) = (   0.0496550   0.1784438   0.3322116  )
        16           O   tau(  16) = (   0.5437320   0.1358032   0.4412372  )
        17           O   tau(  17) = (   0.9503500   0.4292778   0.1512236  )
        18           O   tau(  18) = (   0.1479210   0.4998740   0.0313385  )
        19           O   tau(  19) = (   0.3206550   0.0499879   0.3715117  )
        20           O   tau(  20) = (   0.8792370   0.3533239   0.3928335  )
        21           O   tau(  21) = (   0.6516400   0.3273835   0.1006681  )
        22           O   tau(  22) = (   0.8520850   0.1078476   0.4520971  )
        23           O   tau(  23) = (   0.6793510   0.5577337   0.1119239  )
        24           O   tau(  24) = (   0.1207690   0.2543971   0.0906016  )
        25           O   tau(  25) = (   0.3483660   0.2803381   0.3827675  )

   Crystallographic axes

     site n.     atom                  positions (cryst. coord.)
         1           Na  tau(   1) = (  0.9999980  0.0000000  0.5000030  )
         2           Fe  tau(   2) = (  0.2996860  0.7732900  0.8524230  )
         3           Fe  tau(   3) = (  0.2274400  0.3390880  0.5096480  )
         4           Fe  tau(   4) = (  0.7003200  0.2267150  0.1475820  )
         5           Fe  tau(   5) = (  0.7725660  0.6609170  0.4903580  )
         6           P   tau(   6) = (  0.0937970  0.6534080  0.2671580  )
         7           P   tau(   7) = (  0.3977930  0.2514270  0.9458550  )
         8           P   tau(   8) = (  0.9062090  0.3465970  0.7328520  )
         9           P   tau(   9) = (  0.6022130  0.7485780  0.0541490  )
        10           O   tau(  10) = (  0.1764850  0.6864160  0.5345620  )
        11           O   tau(  11) = (  0.3589780  0.2508460  0.2452380  )
        12           O   tau(  12) = (  0.8235200  0.3135890  0.4654410  )
        13           O   tau(  13) = (  0.6410280  0.7491590  0.7547690  )
        14           O   tau(  14) = (  0.4562740  0.7765410  0.0872890  )
        15           O   tau(  15) = (  0.0496550  0.2936290  0.6871930  )
        16           O   tau(  16) = (  0.5437320  0.2234640  0.9127170  )
        17           O   tau(  17) = (  0.9503500  0.7063760  0.3128120  )
        18           O   tau(  18) = (  0.1479210  0.8225420  0.0648250  )
        19           O   tau(  19) = (  0.3206550  0.0822550  0.7684870  )
        20           O   tau(  20) = (  0.8792370  0.5813940  0.8125920  )
        21           O   tau(  21) = (  0.6516400  0.5387090  0.2082360  )
        22           O   tau(  22) = (  0.8520850  0.1774630  0.9351810  )
        23           O   tau(  23) = (  0.6793510  0.9177500  0.2315190  )
        24           O   tau(  24) = (  0.1207690  0.4186100  0.1874130  )
        25           O   tau(  25) = (  0.3483660  0.4612960  0.7917700  )

     number of k points=   158  Marzari-Vanderbilt smearing, width (Ry)=  0.0073
                       cart. coord. in units 2pi/alat
        k(    1) = (   0.0000000   0.0000000   0.0000000), wk =   0.0031746
        k(    2) = (   0.0000000   0.0000000   0.2298378), wk =   0.0063492
        k(    3) = (   0.0000000   0.0000000   0.4596756), wk =   0.0063492
        k(    4) = (   0.0000000   0.0000000   0.6895134), wk =   0.0063492
        k(    5) = (   0.0000000   0.0000000   0.9193512), wk =   0.0063492
        k(    6) = (   0.0000000   0.2350712   0.0000000), wk =   0.0063492
        k(    7) = (   0.0000000   0.2350712   0.2298378), wk =   0.0063492
        k(    8) = (   0.0000000   0.2350712   0.4596756), wk =   0.0063492
        k(    9) = (   0.0000000   0.2350712   0.6895134), wk =   0.0063492
        k(   10) = (   0.0000000   0.2350712   0.9193512), wk =   0.0063492
        k(   11) = (   0.0000000   0.4701424   0.0000000), wk =   0.0063492
        k(   12) = (   0.0000000   0.4701424   0.2298378), wk =   0.0063492
        k(   13) = (   0.0000000   0.4701424   0.4596756), wk =   0.0063492
        k(   14) = (   0.0000000   0.4701424   0.6895134), wk =   0.0063492
        k(   15) = (   0.0000000   0.4701424   0.9193512), wk =   0.0063492
        k(   16) = (   0.0000000   0.7052137   0.0000000), wk =   0.0063492
        k(   17) = (   0.0000000   0.7052137   0.2298378), wk =   0.0063492
        k(   18) = (   0.0000000   0.7052137   0.4596756), wk =   0.0063492
        k(   19) = (   0.0000000   0.7052137   0.6895134), wk =   0.0063492
        k(   20) = (   0.0000000   0.7052137   0.9193512), wk =   0.0063492
        k(   21) = (   0.2000000   0.0000000   0.0000000), wk =   0.0063492
        k(   22) = (   0.2000000   0.0000000   0.2298378), wk =   0.0063492
        k(   23) = (   0.2000000   0.0000000   0.4596756), wk =   0.0063492
        k(   24) = (   0.2000000   0.0000000   0.6895134), wk =   0.0063492
        k(   25) = (   0.2000000   0.0000000   0.9193512), wk =   0.0063492
        k(   26) = (   0.2000000   0.2350712   0.0000000), wk =   0.0063492
        k(   27) = (   0.2000000   0.2350712   0.2298378), wk =   0.0063492
        k(   28) = (   0.2000000   0.2350712   0.4596756), wk =   0.0063492
        k(   29) = (   0.2000000   0.2350712   0.6895134), wk =   0.0063492
        k(   30) = (   0.2000000   0.2350712   0.9193512), wk =   0.0063492
        k(   31) = (   0.2000000   0.4701424   0.0000000), wk =   0.0063492
        k(   32) = (   0.2000000   0.4701424   0.2298378), wk =   0.0063492
        k(   33) = (   0.2000000   0.4701424   0.4596756), wk =   0.0063492
        k(   34) = (   0.2000000   0.4701424   0.6895134), wk =   0.0063492
        k(   35) = (   0.2000000   0.4701424   0.9193512), wk =   0.0063492
        k(   36) = (   0.2000000   0.7052137   0.0000000), wk =   0.0063492
        k(   37) = (   0.2000000   0.7052137   0.2298378), wk =   0.0063492
        k(   38) = (   0.2000000   0.7052137   0.4596756), wk =   0.0063492
        k(   39) = (   0.2000000   0.7052137   0.6895134), wk =   0.0063492
        k(   40) = (   0.2000000   0.7052137   0.9193512), wk =   0.0063492
        k(   41) = (   0.4000000   0.0000000   0.0000000), wk =   0.0063492
        k(   42) = (   0.4000000   0.0000000   0.2298378), wk =   0.0063492
        k(   43) = (   0.4000000   0.0000000   0.4596756), wk =   0.0063492
        k(   44) = (   0.4000000   0.0000000   0.6895134), wk =   0.0063492
        k(   45) = (   0.4000000   0.0000000   0.9193512), wk =   0.0063492
        k(   46) = (   0.4000000   0.2350712   0.0000000), wk =   0.0063492
        k(   47) = (   0.4000000   0.2350712   0.2298378), wk =   0.0063492
        k(   48) = (   0.4000000   0.2350712   0.4596756), wk =   0.0063492
        k(   49) = (   0.4000000   0.2350712   0.6895134), wk =   0.0063492
        k(   50) = (   0.4000000   0.2350712   0.9193512), wk =   0.0063492
        k(   51) = (   0.4000000   0.4701424   0.0000000), wk =   0.0063492
        k(   52) = (   0.4000000   0.4701424   0.2298378), wk =   0.0063492
        k(   53) = (   0.4000000   0.4701424   0.4596756), wk =   0.0063492
        k(   54) = (   0.4000000   0.4701424   0.6895134), wk =   0.0063492
        k(   55) = (   0.4000000   0.4701424   0.9193512), wk =   0.0063492
        k(   56) = (   0.4000000   0.7052137   0.0000000), wk =   0.0063492
        k(   57) = (   0.4000000   0.7052137   0.2298378), wk =   0.0063492
        k(   58) = (   0.4000000   0.7052137   0.4596756), wk =   0.0063492
        k(   59) = (   0.4000000   0.7052137   0.6895134), wk =   0.0063492
        k(   60) = (   0.4000000   0.7052137   0.9193512), wk =   0.0063492
        k(   61) = (   0.0000000  -0.2350712   0.2298378), wk =   0.0063492
        k(   62) = (   0.0000000  -0.2350712   0.4596756), wk =   0.0063492
        k(   63) = (   0.0000000  -0.2350712   0.6895134), wk =   0.0063492
        k(   64) = (   0.0000000  -0.2350712   0.9193512), wk =   0.0063492
        k(   65) = (   0.0000000  -0.4701424   0.2298378), wk =   0.0063492
        k(   66) = (   0.0000000  -0.4701424   0.4596756), wk =   0.0063492
        k(   67) = (   0.0000000  -0.4701424   0.6895134), wk =   0.0063492
        k(   68) = (   0.0000000  -0.4701424   0.9193512), wk =   0.0063492
        k(   69) = (   0.0000000  -0.7052137   0.2298378), wk =   0.0063492
        k(   70) = (   0.0000000  -0.7052137   0.4596756), wk =   0.0063492
        k(   71) = (   0.0000000  -0.7052137   0.6895134), wk =   0.0063492
        k(   72) = (   0.0000000  -0.7052137   0.9193512), wk =   0.0063492
        k(   73) = (  -0.2000000   0.0000000   0.2298378), wk =   0.0063492
        k(   74) = (  -0.2000000   0.0000000   0.4596756), wk =   0.0063492
        k(   75) = (  -0.2000000   0.0000000   0.6895134), wk =   0.0063492
        k(   76) = (  -0.2000000   0.0000000   0.9193512), wk =   0.0063492
        k(   77) = (  -0.2000000   0.2350712   0.0000000), wk =   0.0063492
        k(   78) = (  -0.2000000  -0.2350712   0.2298378), wk =   0.0063492
        k(   79) = (  -0.2000000   0.2350712  -0.2298378), wk =   0.0063492
        k(   80) = (   0.2000000  -0.2350712  -0.2298378), wk =   0.0063492
        k(   81) = (  -0.2000000  -0.2350712   0.4596756), wk =   0.0063492
        k(   82) = (  -0.2000000   0.2350712  -0.4596756), wk =   0.0063492
        k(   83) = (   0.2000000  -0.2350712  -0.4596756), wk =   0.0063492
        k(   84) = (  -0.2000000  -0.2350712   0.6895134), wk =   0.0063492
        k(   85) = (  -0.2000000   0.2350712  -0.6895134), wk =   0.0063492
        k(   86) = (   0.2000000  -0.2350712  -0.6895134), wk =   0.0063492
        k(   87) = (  -0.2000000  -0.2350712   0.9193512), wk =   0.0063492
        k(   88) = (  -0.2000000   0.2350712  -0.9193512), wk =   0.0063492
        k(   89) = (   0.2000000  -0.2350712  -0.9193512), wk =   0.0063492
        k(   90) = (  -0.2000000   0.4701424   0.0000000), wk =   0.0063492
        k(   91) = (  -0.2000000  -0.4701424   0.2298378), wk =   0.0063492
        k(   92) = (  -0.2000000   0.4701424  -0.2298378), wk =   0.0063492
        k(   93) = (   0.2000000  -0.4701424  -0.2298378), wk =   0.0063492
        k(   94) = (  -0.2000000  -0.4701424   0.4596756), wk =   0.0063492
        k(   95) = (  -0.2000000   0.4701424  -0.4596756), wk =   0.0063492
        k(   96) = (   0.2000000  -0.4701424  -0.4596756), wk =   0.0063492
        k(   97) = (  -0.2000000  -0.4701424   0.6895134), wk =   0.0063492
        k(   98) = (  -0.2000000   0.4701424  -0.6895134), wk =   0.0063492
        k(   99) = (   0.2000000  -0.4701424  -0.6895134), wk =   0.0063492
        k(  100) = (  -0.2000000  -0.4701424   0.9193512), wk =   0.0063492
        k(  101) = (  -0.2000000   0.4701424  -0.9193512), wk =   0.0063492
        k(  102) = (   0.2000000  -0.4701424  -0.9193512), wk =   0.0063492
        k(  103) = (  -0.2000000   0.7052137   0.0000000), wk =   0.0063492
        k(  104) = (  -0.2000000  -0.7052137   0.2298378), wk =   0.0063492
        k(  105) = (  -0.2000000   0.7052137  -0.2298378), wk =   0.0063492
        k(  106) = (   0.2000000  -0.7052137  -0.2298378), wk =   0.0063492
        k(  107) = (  -0.2000000  -0.7052137   0.4596756), wk =   0.0063492
        k(  108) = (  -0.2000000   0.7052137  -0.4596756), wk =   0.0063492
        k(  109) = (   0.2000000  -0.7052137  -0.4596756), wk =   0.0063492
        k(  110) = (  -0.2000000  -0.7052137   0.6895134), wk =   0.0063492
        k(  111) = (  -0.2000000   0.7052137  -0.6895134), wk =   0.0063492
        k(  112) = (   0.2000000  -0.7052137  -0.6895134), wk =   0.0063492
        k(  113) = (  -0.2000000  -0.7052137   0.9193512), wk =   0.0063492
        k(  114) = (  -0.2000000   0.7052137  -0.9193512), wk =   0.0063492
        k(  115) = (   0.2000000  -0.7052137  -0.9193512), wk =   0.0063492
        k(  116) = (  -0.4000000   0.0000000   0.2298378), wk =   0.0063492
        k(  117) = (  -0.4000000   0.0000000   0.4596756), wk =   0.0063492
        k(  118) = (  -0.4000000   0.0000000   0.6895134), wk =   0.0063492
        k(  119) = (  -0.4000000   0.0000000   0.9193512), wk =   0.0063492
        k(  120) = (  -0.4000000   0.2350712   0.0000000), wk =   0.0063492
        k(  121) = (  -0.4000000  -0.2350712   0.2298378), wk =   0.0063492
        k(  122) = (  -0.4000000   0.2350712  -0.2298378), wk =   0.0063492
        k(  123) = (   0.4000000  -0.2350712  -0.2298378), wk =   0.0063492
        k(  124) = (  -0.4000000  -0.2350712   0.4596756), wk =   0.0063492
        k(  125) = (  -0.4000000   0.2350712  -0.4596756), wk =   0.0063492
        k(  126) = (   0.4000000  -0.2350712  -0.4596756), wk =   0.0063492
        k(  127) = (  -0.4000000  -0.2350712   0.6895134), wk =   0.0063492
        k(  128) = (  -0.4000000   0.2350712  -0.6895134), wk =   0.0063492
        k(  129) = (   0.4000000  -0.2350712  -0.6895134), wk =   0.0063492
        k(  130) = (  -0.4000000  -0.2350712   0.9193512), wk =   0.0063492
        k(  131) = (  -0.4000000   0.2350712  -0.9193512), wk =   0.0063492
        k(  132) = (   0.4000000  -0.2350712  -0.9193512), wk =   0.0063492
        k(  133) = (  -0.4000000   0.4701424   0.0000000), wk =   0.0063492
        k(  134) = (  -0.4000000  -0.4701424   0.2298378), wk =   0.0063492
        k(  135) = (  -0.4000000   0.4701424  -0.2298378), wk =   0.0063492
        k(  136) = (   0.4000000  -0.4701424  -0.2298378), wk =   0.0063492
        k(  137) = (  -0.4000000  -0.4701424   0.4596756), wk =   0.0063492
        k(  138) = (  -0.4000000   0.4701424  -0.4596756), wk =   0.0063492
        k(  139) = (   0.4000000  -0.4701424  -0.4596756), wk =   0.0063492
        k(  140) = (  -0.4000000  -0.4701424   0.6895134), wk =   0.0063492
        k(  141) = (  -0.4000000   0.4701424  -0.6895134), wk =   0.0063492
        k(  142) = (   0.4000000  -0.4701424  -0.6895134), wk =   0.0063492
        k(  143) = (  -0.4000000  -0.4701424   0.9193512), wk =   0.0063492
        k(  144) = (  -0.4000000   0.4701424  -0.9193512), wk =   0.0063492
        k(  145) = (   0.4000000  -0.4701424  -0.9193512), wk =   0.0063492
        k(  146) = (  -0.4000000   0.7052137   0.0000000), wk =   0.0063492
        k(  147) = (  -0.4000000  -0.7052137   0.2298378), wk =   0.0063492
        k(  148) = (  -0.4000000   0.7052137  -0.2298378), wk =   0.0063492
        k(  149) = (   0.4000000  -0.7052137  -0.2298378), wk =   0.0063492
        k(  150) = (  -0.4000000  -0.7052137   0.4596756), wk =   0.0063492
        k(  151) = (  -0.4000000   0.7052137  -0.4596756), wk =   0.0063492
        k(  152) = (   0.4000000  -0.7052137  -0.4596756), wk =   0.0063492
        k(  153) = (  -0.4000000  -0.7052137   0.6895134), wk =   0.0063492
        k(  154) = (  -0.4000000   0.7052137  -0.6895134), wk =   0.0063492
        k(  155) = (   0.4000000  -0.7052137  -0.6895134), wk =   0.0063492
        k(  156) = (  -0.4000000  -0.7052137   0.9193512), wk =   0.0063492
        k(  157) = (  -0.4000000   0.7052137  -0.9193512), wk =   0.0063492
        k(  158) = (   0.4000000  -0.7052137  -0.9193512), wk =   0.0063492

                       cryst. coord.
        k(    1) = (   0.0000000   0.0000000   0.0000000), wk =   0.0031746
        k(    2) = (   0.0000000   0.0000000   0.1111111), wk =   0.0063492
        k(    3) = (   0.0000000   0.0000000   0.2222222), wk =   0.0063492
        k(    4) = (   0.0000000   0.0000000   0.3333333), wk =   0.0063492
        k(    5) = (   0.0000000   0.0000000   0.4444444), wk =   0.0063492
        k(    6) = (   0.0000000   0.1428571   0.0000000), wk =   0.0063492
        k(    7) = (   0.0000000   0.1428571   0.1111111), wk =   0.0063492
        k(    8) = (   0.0000000   0.1428571   0.2222222), wk =   0.0063492
        k(    9) = (   0.0000000   0.1428571   0.3333333), wk =   0.0063492
        k(   10) = (   0.0000000   0.1428571   0.4444444), wk =   0.0063492
        k(   11) = (   0.0000000   0.2857143   0.0000000), wk =   0.0063492
        k(   12) = (   0.0000000   0.2857143   0.1111111), wk =   0.0063492
        k(   13) = (   0.0000000   0.2857143   0.2222222), wk =   0.0063492
        k(   14) = (   0.0000000   0.2857143   0.3333333), wk =   0.0063492
        k(   15) = (   0.0000000   0.2857143   0.4444444), wk =   0.0063492
        k(   16) = (   0.0000000   0.4285714   0.0000000), wk =   0.0063492
        k(   17) = (   0.0000000   0.4285714   0.1111111), wk =   0.0063492
        k(   18) = (   0.0000000   0.4285714   0.2222222), wk =   0.0063492
        k(   19) = (   0.0000000   0.4285714   0.3333333), wk =   0.0063492
        k(   20) = (   0.0000000   0.4285714   0.4444444), wk =   0.0063492
        k(   21) = (   0.2000000   0.0000000   0.0000000), wk =   0.0063492
        k(   22) = (   0.2000000   0.0000000   0.1111111), wk =   0.0063492
        k(   23) = (   0.2000000   0.0000000   0.2222222), wk =   0.0063492
        k(   24) = (   0.2000000   0.0000000   0.3333333), wk =   0.0063492
        k(   25) = (   0.2000000   0.0000000   0.4444444), wk =   0.0063492
        k(   26) = (   0.2000000   0.1428571   0.0000000), wk =   0.0063492
        k(   27) = (   0.2000000   0.1428571   0.1111111), wk =   0.0063492
        k(   28) = (   0.2000000   0.1428571   0.2222222), wk =   0.0063492
        k(   29) = (   0.2000000   0.1428571   0.3333333), wk =   0.0063492
        k(   30) = (   0.2000000   0.1428571   0.4444444), wk =   0.0063492
        k(   31) = (   0.2000000   0.2857143   0.0000000), wk =   0.0063492
        k(   32) = (   0.2000000   0.2857143   0.1111111), wk =   0.0063492
        k(   33) = (   0.2000000   0.2857143   0.2222222), wk =   0.0063492
        k(   34) = (   0.2000000   0.2857143   0.3333333), wk =   0.0063492
        k(   35) = (   0.2000000   0.2857143   0.4444444), wk =   0.0063492
        k(   36) = (   0.2000000   0.4285714   0.0000000), wk =   0.0063492
        k(   37) = (   0.2000000   0.4285714   0.1111111), wk =   0.0063492
        k(   38) = (   0.2000000   0.4285714   0.2222222), wk =   0.0063492
        k(   39) = (   0.2000000   0.4285714   0.3333333), wk =   0.0063492
        k(   40) = (   0.2000000   0.4285714   0.4444444), wk =   0.0063492
        k(   41) = (   0.4000000   0.0000000   0.0000000), wk =   0.0063492
        k(   42) = (   0.4000000   0.0000000   0.1111111), wk =   0.0063492
        k(   43) = (   0.4000000   0.0000000   0.2222222), wk =   0.0063492
        k(   44) = (   0.4000000   0.0000000   0.3333333), wk =   0.0063492
        k(   45) = (   0.4000000   0.0000000   0.4444444), wk =   0.0063492
        k(   46) = (   0.4000000   0.1428571   0.0000000), wk =   0.0063492
        k(   47) = (   0.4000000   0.1428571   0.1111111), wk =   0.0063492
        k(   48) = (   0.4000000   0.1428571   0.2222222), wk =   0.0063492
        k(   49) = (   0.4000000   0.1428571   0.3333333), wk =   0.0063492
        k(   50) = (   0.4000000   0.1428571   0.4444444), wk =   0.0063492
        k(   51) = (   0.4000000   0.2857143   0.0000000), wk =   0.0063492
        k(   52) = (   0.4000000   0.2857143   0.1111111), wk =   0.0063492
        k(   53) = (   0.4000000   0.2857143   0.2222222), wk =   0.0063492
        k(   54) = (   0.4000000   0.2857143   0.3333333), wk =   0.0063492
        k(   55) = (   0.4000000   0.2857143   0.4444444), wk =   0.0063492
        k(   56) = (   0.4000000   0.4285714   0.0000000), wk =   0.0063492
        k(   57) = (   0.4000000   0.4285714   0.1111111), wk =   0.0063492
        k(   58) = (   0.4000000   0.4285714   0.2222222), wk =   0.0063492
        k(   59) = (   0.4000000   0.4285714   0.3333333), wk =   0.0063492
        k(   60) = (   0.4000000   0.4285714   0.4444444), wk =   0.0063492
        k(   61) = (   0.0000000  -0.1428571   0.1111111), wk =   0.0063492
        k(   62) = (   0.0000000  -0.1428571   0.2222222), wk =   0.0063492
        k(   63) = (   0.0000000  -0.1428571   0.3333333), wk =   0.0063492
        k(   64) = (   0.0000000  -0.1428571   0.4444444), wk =   0.0063492
        k(   65) = (   0.0000000  -0.2857143   0.1111111), wk =   0.0063492
        k(   66) = (   0.0000000  -0.2857143   0.2222222), wk =   0.0063492
        k(   67) = (   0.0000000  -0.2857143   0.3333333), wk =   0.0063492
        k(   68) = (   0.0000000  -0.2857143   0.4444444), wk =   0.0063492
        k(   69) = (   0.0000000  -0.4285714   0.1111111), wk =   0.0063492
        k(   70) = (   0.0000000  -0.4285714   0.2222222), wk =   0.0063492
        k(   71) = (   0.0000000  -0.4285714   0.3333333), wk =   0.0063492
        k(   72) = (   0.0000000  -0.4285714   0.4444444), wk =   0.0063492
        k(   73) = (  -0.2000000   0.0000000   0.1111111), wk =   0.0063492
        k(   74) = (  -0.2000000   0.0000000   0.2222222), wk =   0.0063492
        k(   75) = (  -0.2000000   0.0000000   0.3333333), wk =   0.0063492
        k(   76) = (  -0.2000000   0.0000000   0.4444444), wk =   0.0063492
        k(   77) = (  -0.2000000   0.1428571   0.0000000), wk =   0.0063492
        k(   78) = (  -0.2000000  -0.1428571   0.1111111), wk =   0.0063492
        k(   79) = (  -0.2000000   0.1428571  -0.1111111), wk =   0.0063492
        k(   80) = (   0.2000000  -0.1428571  -0.1111111), wk =   0.0063492
        k(   81) = (  -0.2000000  -0.1428571   0.2222222), wk =   0.0063492
        k(   82) = (  -0.2000000   0.1428571  -0.2222222), wk =   0.0063492
        k(   83) = (   0.2000000  -0.1428571  -0.2222222), wk =   0.0063492
        k(   84) = (  -0.2000000  -0.1428571   0.3333333), wk =   0.0063492
        k(   85) = (  -0.2000000   0.1428571  -0.3333333), wk =   0.0063492
        k(   86) = (   0.2000000  -0.1428571  -0.3333333), wk =   0.0063492
        k(   87) = (  -0.2000000  -0.1428571   0.4444444), wk =   0.0063492
        k(   88) = (  -0.2000000   0.1428571  -0.4444444), wk =   0.0063492
        k(   89) = (   0.2000000  -0.1428571  -0.4444444), wk =   0.0063492
        k(   90) = (  -0.2000000   0.2857143   0.0000000), wk =   0.0063492
        k(   91) = (  -0.2000000  -0.2857143   0.1111111), wk =   0.0063492
        k(   92) = (  -0.2000000   0.2857143  -0.1111111), wk =   0.0063492
        k(   93) = (   0.2000000  -0.2857143  -0.1111111), wk =   0.0063492
        k(   94) = (  -0.2000000  -0.2857143   0.2222222), wk =   0.0063492
        k(   95) = (  -0.2000000   0.2857143  -0.2222222), wk =   0.0063492
        k(   96) = (   0.2000000  -0.2857143  -0.2222222), wk =   0.0063492
        k(   97) = (  -0.2000000  -0.2857143   0.3333333), wk =   0.0063492
        k(   98) = (  -0.2000000   0.2857143  -0.3333333), wk =   0.0063492
        k(   99) = (   0.2000000  -0.2857143  -0.3333333), wk =   0.0063492
        k(  100) = (  -0.2000000  -0.2857143   0.4444444), wk =   0.0063492
        k(  101) = (  -0.2000000   0.2857143  -0.4444444), wk =   0.0063492
        k(  102) = (   0.2000000  -0.2857143  -0.4444444), wk =   0.0063492
        k(  103) = (  -0.2000000   0.4285714   0.0000000), wk =   0.0063492
        k(  104) = (  -0.2000000  -0.4285714   0.1111111), wk =   0.0063492
        k(  105) = (  -0.2000000   0.4285714  -0.1111111), wk =   0.0063492
        k(  106) = (   0.2000000  -0.4285714  -0.1111111), wk =   0.0063492
        k(  107) = (  -0.2000000  -0.4285714   0.2222222), wk =   0.0063492
        k(  108) = (  -0.2000000   0.4285714  -0.2222222), wk =   0.0063492
        k(  109) = (   0.2000000  -0.4285714  -0.2222222), wk =   0.0063492
        k(  110) = (  -0.2000000  -0.4285714   0.3333333), wk =   0.0063492
        k(  111) = (  -0.2000000   0.4285714  -0.3333333), wk =   0.0063492
        k(  112) = (   0.2000000  -0.4285714  -0.3333333), wk =   0.0063492
        k(  113) = (  -0.2000000  -0.4285714   0.4444444), wk =   0.0063492
        k(  114) = (  -0.2000000   0.4285714  -0.4444444), wk =   0.0063492
        k(  115) = (   0.2000000  -0.4285714  -0.4444444), wk =   0.0063492
        k(  116) = (  -0.4000000   0.0000000   0.1111111), wk =   0.0063492
        k(  117) = (  -0.4000000   0.0000000   0.2222222), wk =   0.0063492
        k(  118) = (  -0.4000000   0.0000000   0.3333333), wk =   0.0063492
        k(  119) = (  -0.4000000   0.0000000   0.4444444), wk =   0.0063492
        k(  120) = (  -0.4000000   0.1428571   0.0000000), wk =   0.0063492
        k(  121) = (  -0.4000000  -0.1428571   0.1111111), wk =   0.0063492
        k(  122) = (  -0.4000000   0.1428571  -0.1111111), wk =   0.0063492
        k(  123) = (   0.4000000  -0.1428571  -0.1111111), wk =   0.0063492
        k(  124) = (  -0.4000000  -0.1428571   0.2222222), wk =   0.0063492
        k(  125) = (  -0.4000000   0.1428571  -0.2222222), wk =   0.0063492
        k(  126) = (   0.4000000  -0.1428571  -0.2222222), wk =   0.0063492
        k(  127) = (  -0.4000000  -0.1428571   0.3333333), wk =   0.0063492
        k(  128) = (  -0.4000000   0.1428571  -0.3333333), wk =   0.0063492
        k(  129) = (   0.4000000  -0.1428571  -0.3333333), wk =   0.0063492
        k(  130) = (  -0.4000000  -0.1428571   0.4444444), wk =   0.0063492
        k(  131) = (  -0.4000000   0.1428571  -0.4444444), wk =   0.0063492
        k(  132) = (   0.4000000  -0.1428571  -0.4444444), wk =   0.0063492
        k(  133) = (  -0.4000000   0.2857143   0.0000000), wk =   0.0063492
        k(  134) = (  -0.4000000  -0.2857143   0.1111111), wk =   0.0063492
        k(  135) = (  -0.4000000   0.2857143  -0.1111111), wk =   0.0063492
        k(  136) = (   0.4000000  -0.2857143  -0.1111111), wk =   0.0063492
        k(  137) = (  -0.4000000  -0.2857143   0.2222222), wk =   0.0063492
        k(  138) = (  -0.4000000   0.2857143  -0.2222222), wk =   0.0063492
        k(  139) = (   0.4000000  -0.2857143  -0.2222222), wk =   0.0063492
        k(  140) = (  -0.4000000  -0.2857143   0.3333333), wk =   0.0063492
        k(  141) = (  -0.4000000   0.2857143  -0.3333333), wk =   0.0063492
        k(  142) = (   0.4000000  -0.2857143  -0.3333333), wk =   0.0063492
        k(  143) = (  -0.4000000  -0.2857143   0.4444444), wk =   0.0063492
        k(  144) = (  -0.4000000   0.2857143  -0.4444444), wk =   0.0063492
        k(  145) = (   0.4000000  -0.2857143  -0.4444444), wk =   0.0063492
        k(  146) = (  -0.4000000   0.4285714   0.0000000), wk =   0.0063492
        k(  147) = (  -0.4000000  -0.4285714   0.1111111), wk =   0.0063492
        k(  148) = (  -0.4000000   0.4285714  -0.1111111), wk =   0.0063492
        k(  149) = (   0.4000000  -0.4285714  -0.1111111), wk =   0.0063492
        k(  150) = (  -0.4000000  -0.4285714   0.2222222), wk =   0.0063492
        k(  151) = (  -0.4000000   0.4285714  -0.2222222), wk =   0.0063492
        k(  152) = (   0.4000000  -0.4285714  -0.2222222), wk =   0.0063492
        k(  153) = (  -0.4000000  -0.4285714   0.3333333), wk =   0.0063492
        k(  154) = (  -0.4000000   0.4285714  -0.3333333), wk =   0.0063492
        k(  155) = (   0.4000000  -0.4285714  -0.3333333), wk =   0.0063492
        k(  156) = (  -0.4000000  -0.4285714   0.4444444), wk =   0.0063492
        k(  157) = (  -0.4000000   0.4285714  -0.4444444), wk =   0.0063492
        k(  158) = (   0.4000000  -0.4285714  -0.4444444), wk =   0.0063492

     Dense  grid:  1273469 G-vectors     FFT dimensions: ( 216, 125, 100)

     Smooth grid:   287059 G-vectors     FFT dimensions: ( 125,  75,  60)

     Dynamical RAM for                 wfc:       3.90 MB

     Dynamical RAM for     wfc (w. buffer):    1236.29 MB

     Dynamical RAM for           str. fact:       4.86 MB

     Dynamical RAM for           local pot:       0.00 MB

     Dynamical RAM for          nlocal pot:       9.58 MB

     Dynamical RAM for                qrad:      10.54 MB

     Dynamical RAM for          rho,v,vnew:      15.94 MB

     Dynamical RAM for               rhoin:       5.31 MB

     Dynamical RAM for            rho*nmix:      38.86 MB

     Dynamical RAM for           G-vectors:       4.69 MB

     Dynamical RAM for          h,s,v(r/c):       2.38 MB

     Dynamical RAM for          <psi|beta>:       0.49 MB

     Dynamical RAM for                 psi:       7.80 MB

     Dynamical RAM for                hpsi:       7.80 MB

     Dynamical RAM for                spsi:       7.80 MB

     Dynamical RAM for      wfcinit/wfcrot:       9.80 MB

     Dynamical RAM for           addusdens:     246.54 MB

     Dynamical RAM for          addusforce:     283.10 MB

     Dynamical RAM for         addusstress:     245.93 MB

     Estimated static dynamical RAM per process >       1.31 GB

     Estimated max dynamical RAM per process >       1.59 GB

     Estimated total dynamical RAM >      25.37 GB

     Check: negative core charge=   -0.000003
     Generating pointlists ...
     new r_m :   0.0766 (alat units)  1.4810 (a.u.) for type    1
     new r_m :   0.0850 (alat units)  1.6443 (a.u.) for type    2
     new r_m :   0.0610 (alat units)  1.1789 (a.u.) for type    3
     new r_m :   0.0610 (alat units)  1.1789 (a.u.) for type    4

     Initial potential from superposition of free atoms

     starting charge  188.99132, renormalised to  189.00000
     Starting wfcs are  137 randomized atomic wfcs
     Checking if some PAW data can be deallocated... 
       PAW data deallocated on   13 nodes for type:  1
       PAW data deallocated on    4 nodes for type:  3

     total cpu time spent up to now is     1308.3 secs

     Self-consistent Calculation

     iteration #  1     ecut=   100.00 Ry     beta= 0.40
     Davidson diagonalization with overlap
     ethr =  1.00E-02,  avg # of iterations =  3.0

     negative rho (up, down):  0.000E+00 8.066E-05

     total cpu time spent up to now is     4944.1 secs

     total energy              =   -2123.84790767 Ry
     estimated scf accuracy    <       6.82604344 Ry

     total magnetization       =    19.00 Bohr mag/cell
     absolute magnetization    =    19.00 Bohr mag/cell

     iteration #  2     ecut=   100.00 Ry     beta= 0.40
     Davidson diagonalization with overlap
     ethr =  3.61E-03,  avg # of iterations =  2.0

     negative rho (up, down):  0.000E+00 5.562E-05

     total cpu time spent up to now is     8344.3 secs

     total energy              =   -2122.53693681 Ry
     estimated scf accuracy    <      18.53046512 Ry

     total magnetization       =    11.51 Bohr mag/cell
     absolute magnetization    =    12.00 Bohr mag/cell

     iteration #  3     ecut=   100.00 Ry     beta= 0.40
     Davidson diagonalization with overlap
     ethr =  3.61E-03,  avg # of iterations =  2.0

     negative rho (up, down):  0.000E+00 3.694E-05

     total cpu time spent up to now is    11185.4 secs

     total energy              =   -2123.76680058 Ry
     estimated scf accuracy    <      39.27502784 Ry

     total magnetization       =     4.87 Bohr mag/cell
     absolute magnetization    =     6.37 Bohr mag/cell

     iteration #  4     ecut=   100.00 Ry     beta= 0.40
     Davidson diagonalization with overlap
     ethr =  3.61E-03,  avg # of iterations =  2.0

     negative rho (up, down):  0.000E+00 1.414E-04

     total cpu time spent up to now is    13996.2 secs

     total energy              =   -2125.84353104 Ry
     estimated scf accuracy    <       2.18497601 Ry

     total magnetization       =    19.00 Bohr mag/cell
     absolute magnetization    =    19.00 Bohr mag/cell

     iteration #  5     ecut=   100.00 Ry     beta= 0.40
     Davidson diagonalization with overlap
     ethr =  1.16E-03,  avg # of iterations =  1.6

     negative rho (up, down):  0.000E+00 1.588E-04

     total cpu time spent up to now is    16741.3 secs

     total energy              =   -2125.67946686 Ry
     estimated scf accuracy    <       9.60384145 Ry

     total magnetization       =    14.99 Bohr mag/cell
     absolute magnetization    =    15.23 Bohr mag/cell

     iteration #  6     ecut=   100.00 Ry     beta= 0.40
     Davidson diagonalization with overlap
     ethr =  1.16E-03,  avg # of iterations =  1.0

     negative rho (up, down):  0.000E+00 3.944E-04

     total cpu time spent up to now is    19412.0 secs

     total energy              =   -2125.86731527 Ry
     estimated scf accuracy    <       0.58347665 Ry

     total magnetization       =    19.00 Bohr mag/cell
     absolute magnetization    =    19.00 Bohr mag/cell

     iteration #  7     ecut=   100.00 Ry     beta= 0.40
     Davidson diagonalization with overlap
     ethr =  3.09E-04,  avg # of iterations =  3.5

     negative rho (up, down):  0.000E+00 4.070E-04

     total cpu time spent up to now is    22358.5 secs

     total energy              =   -2125.94019638 Ry
     estimated scf accuracy    <       0.85558429 Ry

     total magnetization       =    18.94 Bohr mag/cell
     absolute magnetization    =    18.95 Bohr mag/cell

     iteration #  8     ecut=   100.00 Ry     beta= 0.40
     Davidson diagonalization with overlap
     ethr =  3.09E-04,  avg # of iterations =  1.0

     negative rho (up, down):  0.000E+00 4.264E-04

     total cpu time spent up to now is    25036.5 secs

     total energy              =   -2125.94990028 Ry
     estimated scf accuracy    <       0.72659681 Ry

     total magnetization       =    19.02 Bohr mag/cell
     absolute magnetization    =    19.03 Bohr mag/cell

     iteration #  9     ecut=   100.00 Ry     beta= 0.40
     Davidson diagonalization with overlap
     ethr =  3.09E-04,  avg # of iterations =  1.0

     negative rho (up, down):  0.000E+00 7.160E-04

     total cpu time spent up to now is    27712.0 secs

     total energy              =   -2125.94266762 Ry
     estimated scf accuracy    <       0.28694952 Ry

     total magnetization       =    19.00 Bohr mag/cell
     absolute magnetization    =    19.01 Bohr mag/cell

     iteration # 10     ecut=   100.00 Ry     beta= 0.40
     Davidson diagonalization with overlap
     ethr =  1.52E-04,  avg # of iterations =  4.1

     negative rho (up, down):  0.000E+00 8.971E-04

     total cpu time spent up to now is    30674.8 secs

     total energy              =   -2125.96881276 Ry
     estimated scf accuracy    <       0.27338165 Ry

     total magnetization       =    19.00 Bohr mag/cell
     absolute magnetization    =    19.02 Bohr mag/cell

     iteration # 11     ecut=   100.00 Ry     beta= 0.40
     Davidson diagonalization with overlap
     ethr =  1.45E-04,  avg # of iterations =  1.3

     negative rho (up, down):  0.000E+00 8.937E-04

     total cpu time spent up to now is    33387.0 secs

     total energy              =   -2125.96939801 Ry
     estimated scf accuracy    <       0.19899754 Ry

     total magnetization       =    19.00 Bohr mag/cell
     absolute magnetization    =    19.03 Bohr mag/cell

     iteration # 12     ecut=   100.00 Ry     beta= 0.40
     Davidson diagonalization with overlap
     ethr =  1.05E-04,  avg # of iterations =  1.5

     negative rho (up, down):  0.000E+00 8.490E-04

     total cpu time spent up to now is    36119.5 secs

     total energy              =   -2125.96683551 Ry
     estimated scf accuracy    <       0.15764000 Ry

     total magnetization       =    19.00 Bohr mag/cell
     absolute magnetization    =    19.03 Bohr mag/cell

     iteration # 13     ecut=   100.00 Ry     beta= 0.40
     Davidson diagonalization with overlap
     c_bands:  1 eigenvalues not converged
     ethr =  8.34E-05,  avg # of iterations =  2.5

     negative rho (up, down):  0.000E+00 8.619E-04

     total cpu time spent up to now is    38934.5 secs

     total energy              =   -2125.96480650 Ry
     estimated scf accuracy    <       0.06854179 Ry

     total magnetization       =    19.00 Bohr mag/cell
     absolute magnetization    =    19.03 Bohr mag/cell

     iteration # 14     ecut=   100.00 Ry     beta= 0.40
     Davidson diagonalization with overlap
     c_bands:  2 eigenvalues not converged
     c_bands:  2 eigenvalues not converged
     c_bands:  1 eigenvalues not converged
     c_bands:  1 eigenvalues not converged
     c_bands:  1 eigenvalues not converged
     c_bands:  1 eigenvalues not converged
     c_bands:  1 eigenvalues not converged
     c_bands:  1 eigenvalues not converged
     c_bands:  1 eigenvalues not converged
     c_bands:  1 eigenvalues not converged
     c_bands:  1 eigenvalues not converged
     c_bands:  1 eigenvalues not converged
     c_bands:  1 eigenvalues not converged
     c_bands:  2 eigenvalues not converged
     c_bands:  1 eigenvalues not converged
     c_bands:  1 eigenvalues not converged
     c_bands:  1 eigenvalues not converged
     c_bands:  1 eigenvalues not converged
     c_bands:  1 eigenvalues not converged
     c_bands:  1 eigenvalues not converged
     c_bands:  1 eigenvalues not converged
     c_bands:  1 eigenvalues not converged
     c_bands:  1 eigenvalues not converged
     c_bands:  1 eigenvalues not converged
     c_bands:  1 eigenvalues not converged
     c_bands:  1 eigenvalues not converged
     ethr =  3.63E-05,  avg # of iterations = 11.3

     negative rho (up, down):  0.000E+00 8.687E-04

     total cpu time spent up to now is    42563.7 secs

     total energy              =   -2125.96710987 Ry
     estimated scf accuracy    <       0.01066537 Ry

     total magnetization       =    19.00 Bohr mag/cell
     absolute magnetization    =    19.04 Bohr mag/cell

     iteration # 15     ecut=   100.00 Ry     beta= 0.40
     Davidson diagonalization with overlap
     c_bands:  1 eigenvalues not converged
     c_bands:  1 eigenvalues not converged
     c_bands:  1 eigenvalues not converged
     c_bands:  1 eigenvalues not converged
     c_bands:  1 eigenvalues not converged
     c_bands:  1 eigenvalues not converged
     c_bands:  1 eigenvalues not converged
     c_bands:  1 eigenvalues not converged
     c_bands:  1 eigenvalues not converged
     c_bands:  1 eigenvalues not converged
     c_bands:  1 eigenvalues not converged
     c_bands:  1 eigenvalues not converged
     c_bands:  1 eigenvalues not converged
     c_bands:  1 eigenvalues not converged
     c_bands:  1 eigenvalues not converged
     c_bands:  1 eigenvalues not converged
     c_bands:  1 eigenvalues not converged
     c_bands:  1 eigenvalues not converged
     c_bands:  2 eigenvalues not converged
     c_bands:  1 eigenvalues not converged
     c_bands:  1 eigenvalues not converged
     c_bands:  1 eigenvalues not converged
     c_bands:  1 eigenvalues not converged
     c_bands:  1 eigenvalues not converged
     c_bands:  1 eigenvalues not converged
     c_bands:  1 eigenvalues not converged
     c_bands:  1 eigenvalues not converged
     ethr =  5.64E-06,  avg # of iterations = 10.9

     negative rho (up, down):  0.000E+00 8.665E-04

     total cpu time spent up to now is    46212.7 secs

     total energy              =   -2125.96755733 Ry
     estimated scf accuracy    <       0.00031893 Ry

     total magnetization       =    19.00 Bohr mag/cell
     absolute magnetization    =    19.04 Bohr mag/cell

     iteration # 16     ecut=   100.00 Ry     beta= 0.40
     Davidson diagonalization with overlap
     c_bands:  1 eigenvalues not converged
     c_bands:  1 eigenvalues not converged
     c_bands:  1 eigenvalues not converged
     c_bands:  1 eigenvalues not converged
     c_bands:  1 eigenvalues not converged
     c_bands:  1 eigenvalues not converged
     ethr =  1.69E-07,  avg # of iterations =  7.4

     negative rho (up, down):  0.000E+00 8.500E-04

     total cpu time spent up to now is    52066.8 secs

     total energy              =   -2125.96790982 Ry
     estimated scf accuracy    <       0.00238300 Ry

     total magnetization       =    19.00 Bohr mag/cell
     absolute magnetization    =    19.04 Bohr mag/cell

     iteration # 17     ecut=   100.00 Ry     beta= 0.40
     Davidson diagonalization with overlap
     ethr =  1.69E-07,  avg # of iterations =  1.9

     negative rho (up, down):  0.000E+00 8.482E-04

     total cpu time spent up to now is    54836.2 secs

     total energy              =   -2125.96796425 Ry
     estimated scf accuracy    <       0.00009416 Ry

     total magnetization       =    19.00 Bohr mag/cell
     absolute magnetization    =    19.04 Bohr mag/cell

     iteration # 18     ecut=   100.00 Ry     beta= 0.40
     Davidson diagonalization with overlap
     ethr =  4.98E-08,  avg # of iterations =  1.0

     negative rho (up, down):  0.000E+00 8.471E-04

     total cpu time spent up to now is    57514.3 secs

     total energy              =   -2125.96795307 Ry
     estimated scf accuracy    <       0.00049803 Ry

     total magnetization       =    19.00 Bohr mag/cell
     absolute magnetization    =    19.04 Bohr mag/cell

     iteration # 19     ecut=   100.00 Ry     beta= 0.40
     Davidson diagonalization with overlap
     ethr =  4.98E-08,  avg # of iterations =  1.0

     negative rho (up, down):  0.000E+00 8.462E-04

     total cpu time spent up to now is    60189.5 secs

     total energy              =   -2125.96797078 Ry
     estimated scf accuracy    <       0.00007019 Ry

     total magnetization       =    19.00 Bohr mag/cell
     absolute magnetization    =    19.04 Bohr mag/cell

     iteration # 20     ecut=   100.00 Ry     beta= 0.40
     Davidson diagonalization with overlap
     ethr =  3.71E-08,  avg # of iterations =  1.0

     negative rho (up, down):  0.000E+00 8.447E-04

     total cpu time spent up to now is    62866.9 secs

     total energy              =   -2125.96797199 Ry
     estimated scf accuracy    <       0.00003611 Ry

     total magnetization       =    19.00 Bohr mag/cell
     absolute magnetization    =    19.04 Bohr mag/cell

     iteration # 21     ecut=   100.00 Ry     beta= 0.40
     Davidson diagonalization with overlap
     ethr =  1.91E-08,  avg # of iterations =  1.0

     negative rho (up, down):  0.000E+00 8.446E-04

     total cpu time spent up to now is    65545.4 secs

     total energy              =   -2125.96797410 Ry
     estimated scf accuracy    <       0.00000569 Ry

     total magnetization       =    19.00 Bohr mag/cell
     absolute magnetization    =    19.04 Bohr mag/cell

     iteration # 22     ecut=   100.00 Ry     beta= 0.40
     Davidson diagonalization with overlap
     ethr =  3.01E-09,  avg # of iterations =  2.6

     negative rho (up, down):  0.000E+00 8.445E-04

     total cpu time spent up to now is    68408.2 secs

     total energy              =   -2125.96797488 Ry
     estimated scf accuracy    <       0.00001769 Ry

     total magnetization       =    19.00 Bohr mag/cell
     absolute magnetization    =    19.04 Bohr mag/cell

     iteration # 23     ecut=   100.00 Ry     beta= 0.40
     Davidson diagonalization with overlap
     ethr =  3.01E-09,  avg # of iterations =  1.0

     negative rho (up, down):  0.000E+00 8.444E-04

     total cpu time spent up to now is    71085.8 secs

     total energy              =   -2125.96797566 Ry
     estimated scf accuracy    <       0.00000198 Ry

     total magnetization       =    19.00 Bohr mag/cell
     absolute magnetization    =    19.04 Bohr mag/cell

     iteration # 24     ecut=   100.00 Ry     beta= 0.40
     Davidson diagonalization with overlap
     ethr =  1.05E-09,  avg # of iterations =  2.3

     negative rho (up, down):  0.000E+00 8.449E-04

     total cpu time spent up to now is    73943.2 secs

     total energy              =   -2125.96797595 Ry
     estimated scf accuracy    <       0.00000047 Ry

     total magnetization       =    19.00 Bohr mag/cell
     absolute magnetization    =    19.04 Bohr mag/cell

     iteration # 25     ecut=   100.00 Ry     beta= 0.40
     Davidson diagonalization with overlap
     ethr =  2.50E-10,  avg # of iterations =  4.6

     negative rho (up, down):  0.000E+00 8.450E-04

     total cpu time spent up to now is    77752.2 secs

     total energy              =   -2125.96797622 Ry
     estimated scf accuracy    <       0.00000056 Ry

     total magnetization       =    19.00 Bohr mag/cell
     absolute magnetization    =    19.04 Bohr mag/cell

     iteration # 26     ecut=   100.00 Ry     beta= 0.40
     Davidson diagonalization with overlap
     ethr =  2.50E-10,  avg # of iterations =  1.0

     negative rho (up, down):  0.000E+00 8.451E-04

     total cpu time spent up to now is    80429.2 secs

     total energy              =   -2125.96797626 Ry
     estimated scf accuracy    <       0.00000033 Ry

     total magnetization       =    19.00 Bohr mag/cell
     absolute magnetization    =    19.04 Bohr mag/cell

     iteration # 27     ecut=   100.00 Ry     beta= 0.40
     Davidson diagonalization with overlap
     ethr =  1.73E-10,  avg # of iterations =  1.0

     negative rho (up, down):  0.000E+00 8.452E-04

     total cpu time spent up to now is    83108.5 secs

     total energy              =   -2125.96797627 Ry
     estimated scf accuracy    <       0.00000023 Ry

     total magnetization       =    19.00 Bohr mag/cell
     absolute magnetization    =    19.04 Bohr mag/cell

     iteration # 28     ecut=   100.00 Ry     beta= 0.40
     Davidson diagonalization with overlap
     ethr =  1.20E-10,  avg # of iterations =  1.0

     negative rho (up, down):  0.000E+00 8.452E-04

     total cpu time spent up to now is    85786.2 secs

     total energy              =   -2125.96797629 Ry
     estimated scf accuracy    <       0.00000004 Ry

     total magnetization       =    19.00 Bohr mag/cell
     absolute magnetization    =    19.04 Bohr mag/cell

     iteration # 29     ecut=   100.00 Ry     beta= 0.40
     Davidson diagonalization with overlap
     ethr =  1.85E-11,  avg # of iterations =  1.6

     negative rho (up, down):  0.000E+00 8.451E-04

     total cpu time spent up to now is    88577.5 secs

     total energy              =   -2125.96797629 Ry
     estimated scf accuracy    <       0.00000004 Ry

     total magnetization       =    19.00 Bohr mag/cell
     absolute magnetization    =    19.04 Bohr mag/cell

     iteration # 30     ecut=   100.00 Ry     beta= 0.40
     Davidson diagonalization with overlap
     ethr =  1.85E-11,  avg # of iterations =  1.0

     negative rho (up, down):  0.000E+00 8.451E-04

     total cpu time spent up to now is    91255.3 secs

     total energy              =   -2125.96797629 Ry
     estimated scf accuracy    <       0.00000002 Ry

     total magnetization       =    19.00 Bohr mag/cell
     absolute magnetization    =    19.04 Bohr mag/cell

     iteration # 31     ecut=   100.00 Ry     beta= 0.40
     Davidson diagonalization with overlap
     ethr =  9.70E-12,  avg # of iterations =  1.0

     negative rho (up, down):  0.000E+00 8.451E-04

     total cpu time spent up to now is    93935.2 secs

     total energy              =   -2125.96797629 Ry
     estimated scf accuracy    <          1.5E-09 Ry

     total magnetization       =    19.00 Bohr mag/cell
     absolute magnetization    =    19.04 Bohr mag/cell

     iteration # 32     ecut=   100.00 Ry     beta= 0.40
     Davidson diagonalization with overlap
     ethr =  7.76E-13,  avg # of iterations =  3.9

     negative rho (up, down):  0.000E+00 8.451E-04

     total cpu time spent up to now is    97648.4 secs

     total energy              =   -2125.96797629 Ry
     estimated scf accuracy    <          6.9E-10 Ry

     total magnetization       =    19.00 Bohr mag/cell
     absolute magnetization    =    19.04 Bohr mag/cell

     iteration # 33     ecut=   100.00 Ry     beta= 0.40
     Davidson diagonalization with overlap
     ethr =  3.67E-13,  avg # of iterations =  1.6

     negative rho (up, down):  0.000E+00 8.451E-04

     Magnetic moment per site:
     atom:    1    charge:    7.8391    magn:    0.0010    constr:    0.0000
     atom:    2    charge:   12.8330    magn:    3.5953    constr:    0.0000
     atom:    3    charge:   12.8379    magn:    3.5826    constr:    0.0000
     atom:    4    charge:   12.8330    magn:    3.5953    constr:    0.0000
     atom:    5    charge:   12.8379    magn:    3.5826    constr:    0.0000
     atom:    6    charge:    0.8140    magn:    0.0102    constr:    0.0000
     atom:    7    charge:    0.8020    magn:    0.0111    constr:    0.0000
     atom:    8    charge:    0.8140    magn:    0.0102    constr:    0.0000
     atom:    9    charge:    0.8020    magn:    0.0111    constr:    0.0000
     atom:   10    charge:    4.1622    magn:    0.1442    constr:    0.0000
     atom:   11    charge:    4.1765    magn:    0.1099    constr:    0.0000
     atom:   12    charge:    4.1622    magn:    0.1442    constr:    0.0000
     atom:   13    charge:    4.1765    magn:    0.1099    constr:    0.0000
     atom:   14    charge:    4.1895    magn:    0.1147    constr:    0.0000
     atom:   15    charge:    4.2041    magn:    0.0885    constr:    0.0000
     atom:   16    charge:    4.1895    magn:    0.1147    constr:    0.0000
     atom:   17    charge:    4.2041    magn:    0.0885    constr:    0.0000
     atom:   18    charge:    4.1748    magn:    0.1410    constr:    0.0000
     atom:   19    charge:    4.1647    magn:    0.1424    constr:    0.0000
     atom:   20    charge:    4.1708    magn:    0.1222    constr:    0.0000
     atom:   21    charge:    4.1755    magn:    0.1571    constr:    0.0000
     atom:   22    charge:    4.1748    magn:    0.1410    constr:    0.0000
     atom:   23    charge:    4.1647    magn:    0.1424    constr:    0.0000
     atom:   24    charge:    4.1708    magn:    0.1222    constr:    0.0000
     atom:   25    charge:    4.1755    magn:    0.1571    constr:    0.0000

     total cpu time spent up to now is   100415.0 secs

     End of self-consistent calculation

 ------ SPIN UP ------------


          k = 0.0000 0.0000 0.0000 ( 35837 PWs)   bands (ev):

   -84.7860 -84.7860 -84.7843 -84.7843 -51.0098 -51.0098 -50.8588 -50.8588
   -50.7877 -50.7877 -50.7225 -50.7225 -50.7151 -50.7151 -50.6327 -50.6327
   -45.1788 -17.3651 -17.2048 -17.1196 -16.2166 -16.0024 -15.9105 -15.6828
   -13.8196 -13.6736 -13.6592 -13.5573 -13.4617 -13.4141 -13.3624 -13.3080
   -13.2677 -13.2630 -13.1294 -13.1076  -4.1684  -3.7691  -3.3861  -3.2525
    -2.1201  -2.0199  -1.6820  -1.6361  -1.3961  -1.2054  -1.1750  -1.0705
    -1.0205  -0.8802  -0.8317  -0.7008  -0.1112   0.0034   0.2671   0.4809
     0.4842   0.5539   0.6027   0.7247   0.8947   0.9517   1.0890   1.1643
     1.3689   1.4378   1.5960   1.6048   1.7101   1.7819   2.0272   2.0345
     2.1154   2.2446   2.2549   2.4330   2.4667   2.5673   2.6420   2.6432
     2.8061   2.9746   3.0538   3.1195   3.2630   3.2929   3.3426   3.5146
     3.5210   3.7030   3.7882   3.8775   3.9622   4.1139   4.1600   4.2259
     4.2760   4.3944   4.4393   4.5045   4.6042   4.7144   5.1558   5.1821
     9.2958  11.1338  11.3930  12.1214  12.4111  13.2922  13.3463  13.5746
    13.7191  13.8525

     occupation numbers 
     1.0000   1.0000   1.0000   1.0000   1.0000   1.0000   1.0000   1.0000
     1.0000   1.0000   1.0000   1.0000   1.0000   1.0000   1.0000   1.0000
     1.0000   1.0000   1.0000   1.0000   1.0000   1.0000   1.0000   1.0000
     1.0000   1.0000   1.0000   1.0000   1.0000   1.0000   1.0000   1.0000
     1.0000   1.0000   1.0000   1.0000   1.0000   1.0000   1.0000   1.0000
     1.0000   1.0000   1.0000   1.0000   1.0000   1.0000   1.0000   1.0000
     1.0000   1.0000   1.0000   1.0000   1.0000   1.0000   1.0000   1.0000
     1.0000   1.0000   1.0000   1.0000   1.0000   1.0000   1.0000   1.0000
     1.0000   1.0000   1.0000   1.0000   1.0000   1.0000   1.0000   1.0000
     1.0000   1.0000   1.0000   1.0000   1.0000   1.0000   1.0000   1.0000
     1.0000   1.0000   1.0000   1.0000   1.0000   1.0000   1.0000   1.0000
     1.0000   1.0000   1.0000   1.0000   1.0000   1.0000   1.0000   1.0000
     1.0000   1.0000   1.0000   1.0000   1.0000   1.0000   1.0000   1.0000
     0.0000   0.0000   0.0000   0.0000   0.0000   0.0000   0.0000   0.0000
     0.0000   0.0000

          k = 0.0000 0.0000 0.2298 ( 35841 PWs)   bands (ev):

   -84.7860 -84.7860 -84.7843 -84.7843 -51.0098 -51.0098 -50.8588 -50.8588
   -50.7877 -50.7877 -50.7225 -50.7225 -50.7151 -50.7151 -50.6327 -50.6327
   -45.1788 -17.3653 -17.2048 -17.1198 -16.2007 -15.9979 -15.9009 -15.6859
   -13.8267 -13.7045 -13.6361 -13.5517 -13.4637 -13.4127 -13.3744 -13.3306
   -13.2707 -13.2595 -13.1406 -13.1052  -4.1359  -3.7569  -3.4010  -3.2272
    -2.0943  -2.0111  -1.7057  -1.5991  -1.3900  -1.1936  -1.1574  -1.0856
    -0.9776  -0.9040  -0.8459  -0.6928  -0.0915   0.0041   0.2656   0.4256
     0.4944   0.5539   0.6315   0.7188   0.9069   0.9777   1.0920   1.1298
     1.2923   1.4782   1.5855   1.6358   1.6997   1.8299   2.0013   2.0432
     2.0868   2.2272   2.3054   2.3992   2.4713   2.5328   2.5694   2.6924
     2.8019   2.9746   3.0677   3.0703   3.2512   3.2777   3.3563   3.4569
     3.5286   3.7145   3.8051   3.8817   3.9162   4.1097   4.1678   4.2049
     4.2596   4.3844   4.4339   4.5292   4.6060   4.7266   5.1454   5.1929
     9.4377  11.1910  11.4499  12.1362  12.4717  13.1646  13.3820  13.5753
    13.6476  13.7966

     occupation numbers 
     1.0000   1.0000   1.0000   1.0000   1.0000   1.0000   1.0000   1.0000
     1.0000   1.0000   1.0000   1.0000   1.0000   1.0000   1.0000   1.0000
     1.0000   1.0000   1.0000   1.0000   1.0000   1.0000   1.0000   1.0000
     1.0000   1.0000   1.0000   1.0000   1.0000   1.0000   1.0000   1.0000
     1.0000   1.0000   1.0000   1.0000   1.0000   1.0000   1.0000   1.0000
     1.0000   1.0000   1.0000   1.0000   1.0000   1.0000   1.0000   1.0000
     1.0000   1.0000   1.0000   1.0000   1.0000   1.0000   1.0000   1.0000
     1.0000   1.0000   1.0000   1.0000   1.0000   1.0000   1.0000   1.0000
     1.0000   1.0000   1.0000   1.0000   1.0000   1.0000   1.0000   1.0000
     1.0000   1.0000   1.0000   1.0000   1.0000   1.0000   1.0000   1.0000
     1.0000   1.0000   1.0000   1.0000   1.0000   1.0000   1.0000   1.0000
     1.0000   1.0000   1.0000   1.0000   1.0000   1.0000   1.0000   1.0000
     1.0000   1.0000   1.0000   1.0000   1.0000   1.0000   1.0000   1.0000
     0.0000   0.0000   0.0000   0.0000   0.0000   0.0000   0.0000   0.0000
     0.0000   0.0000

          k = 0.0000 0.0000 0.4597 ( 35884 PWs)   bands (ev):

   -84.7860 -84.7860 -84.7843 -84.7843 -51.0098 -51.0098 -50.8588 -50.8588
   -50.7877 -50.7877 -50.7225 -50.7225 -50.7151 -50.7151 -50.6327 -50.6327
   -45.1788 -17.3658 -17.2048 -17.1202 -16.1572 -15.9866 -15.8759 -15.6968
   -13.8470 -13.7456 -13.6138 -13.5434 -13.4665 -13.4082 -13.4001 -13.3679
   -13.2811 -13.2670 -13.1640 -13.1059  -4.0513  -3.7243  -3.4146  -3.1966
    -2.0662  -1.9525  -1.6853  -1.5764  -1.3747  -1.1911  -1.1417  -1.0417
    -0.9466  -0.9141  -0.8626  -0.7020  -0.0662   0.0281   0.2851   0.3630
     0.5067   0.5538   0.6363   0.7856   0.9230   0.9997   1.0343   1.1371
     1.2532   1.5034   1.5289   1.6603   1.7159   1.8358   1.9468   2.0002
     2.0812   2.2153   2.3098   2.3618   2.4109   2.5030   2.5529   2.6908
     2.7916   2.9379   2.9676   3.0570   3.1358   3.2977   3.3920   3.4353
     3.5555   3.7371   3.7908   3.8736   3.8882   4.1054   4.1270   4.1898
     4.2460   4.3511   4.4168   4.5753   4.6156   4.7516   5.1369   5.2024
     9.8174  11.3358  11.5841  12.1873  12.6280  12.8857  13.3520  13.5121
    13.5578  13.7137

     occupation numbers 
     1.0000   1.0000   1.0000   1.0000   1.0000   1.0000   1.0000   1.0000
     1.0000   1.0000   1.0000   1.0000   1.0000   1.0000   1.0000   1.0000
     1.0000   1.0000   1.0000   1.0000   1.0000   1.0000   1.0000   1.0000
     1.0000   1.0000   1.0000   1.0000   1.0000   1.0000   1.0000   1.0000
     1.0000   1.0000   1.0000   1.0000   1.0000   1.0000   1.0000   1.0000
     1.0000   1.0000   1.0000   1.0000   1.0000   1.0000   1.0000   1.0000
     1.0000   1.0000   1.0000   1.0000   1.0000   1.0000   1.0000   1.0000
     1.0000   1.0000   1.0000   1.0000   1.0000   1.0000   1.0000   1.0000
     1.0000   1.0000   1.0000   1.0000   1.0000   1.0000   1.0000   1.0000
     1.0000   1.0000   1.0000   1.0000   1.0000   1.0000   1.0000   1.0000
     1.0000   1.0000   1.0000   1.0000   1.0000   1.0000   1.0000   1.0000
     1.0000   1.0000   1.0000   1.0000   1.0000   1.0000   1.0000   1.0000
     1.0000   1.0000   1.0000   1.0000   1.0000   1.0000   1.0000   1.0000
     0.0000   0.0000   0.0000   0.0000   0.0000   0.0000   0.0000   0.0000
     0.0000   0.0000

          k = 0.0000 0.0000 0.6895 ( 35896 PWs)   bands (ev):

   -84.7860 -84.7860 -84.7843 -84.7843 -51.0098 -51.0098 -50.8588 -50.8588
   -50.7877 -50.7877 -50.7225 -50.7225 -50.7151 -50.7151 -50.6327 -50.6327
   -45.1788 -17.3664 -17.2048 -17.1207 -16.0995 -15.9752 -15.8449 -15.7173
   -13.8727 -13.7839 -13.5942 -13.5453 -13.4731 -13.4291 -13.3993 -13.3860
   -13.2934 -13.2860 -13.1852 -13.1156  -3.9502  -3.6828  -3.4081  -3.2014
    -2.0500  -1.8735  -1.6074  -1.5726  -1.3689  -1.2068  -1.1494  -1.0218
    -0.9227  -0.8965  -0.8247  -0.7438  -0.0644   0.0686   0.3303   0.4176
     0.4841   0.5831   0.6781   0.8351   0.9725   0.9836   1.0533   1.1050
     1.2915   1.4449   1.5123   1.5909   1.7286   1.7345   1.8359   1.9523
     2.0842   2.0962   2.2929   2.3436   2.4141   2.5264   2.5424   2.6237
     2.7907   2.8089   2.8895   2.9295   3.1503   3.3540   3.4667   3.4776
     3.5678   3.7312   3.7618   3.8306   3.9295   4.0896   4.1327   4.1767
     4.2194   4.3075   4.3867   4.5934   4.6441   4.7811   5.1416   5.1986
    10.3309  11.4915  11.7142  12.2373  12.4629  12.9241  13.2422  13.4055
    13.4837  13.6572

     occupation numbers 
     1.0000   1.0000   1.0000   1.0000   1.0000   1.0000   1.0000   1.0000
     1.0000   1.0000   1.0000   1.0000   1.0000   1.0000   1.0000   1.0000
     1.0000   1.0000   1.0000   1.0000   1.0000   1.0000   1.0000   1.0000
     1.0000   1.0000   1.0000   1.0000   1.0000   1.0000   1.0000   1.0000
     1.0000   1.0000   1.0000   1.0000   1.0000   1.0000   1.0000   1.0000
     1.0000   1.0000   1.0000   1.0000   1.0000   1.0000   1.0000   1.0000
     1.0000   1.0000   1.0000   1.0000   1.0000   1.0000   1.0000   1.0000
     1.0000   1.0000   1.0000   1.0000   1.0000   1.0000   1.0000   1.0000
     1.0000   1.0000   1.0000   1.0000   1.0000   1.0000   1.0000   1.0000
     1.0000   1.0000   1.0000   1.0000   1.0000   1.0000   1.0000   1.0000
     1.0000   1.0000   1.0000   1.0000   1.0000   1.0000   1.0000   1.0000
     1.0000   1.0000   1.0000   1.0000   1.0000   1.0000   1.0000   1.0000
     1.0000   1.0000   1.0000   1.0000   1.0000   1.0000   1.0000   1.0000
     0.0000   0.0000   0.0000   0.0000   0.0000   0.0000   0.0000   0.0000
     0.0000   0.0000

          k = 0.0000 0.0000 0.9194 ( 35906 PWs)   bands (ev):

   -84.7860 -84.7860 -84.7843 -84.7843 -51.0098 -51.0098 -50.8588 -50.8588
   -50.7877 -50.7877 -50.7225 -50.7225 -50.7151 -50.7151 -50.6327 -50.6327
   -45.1788 -17.3667 -17.2049 -17.1210 -16.0529 -15.9711 -15.8202 -15.7400
   -13.8902 -13.8085 -13.5775 -13.5517 -13.4889 -13.4433 -13.4122 -13.3631
   -13.3087 -13.2958 -13.1968 -13.1275  -3.8813  -3.6521  -3.3867  -3.2326
    -2.0306  -1.8320  -1.5682  -1.5303  -1.3815  -1.2315  -1.1494  -1.0542
    -0.8961  -0.8642  -0.7977  -0.7714  -0.0676   0.1021   0.3459   0.4207
     0.5978   0.6478   0.7948   0.8388   0.9322   1.0077   1.0661   1.1189
     1.3210   1.3653   1.4696   1.5110   1.5938   1.6361   1.7756   1.9945
     2.0388   2.1049   2.2140   2.3214   2.3825   2.4778   2.5754   2.6223
     2.6991   2.8434   2.8605   2.8677   3.1567   3.3936   3.4834   3.5543
     3.5727   3.6803   3.7708   3.8138   4.0029   4.0827   4.1350   4.1565
     4.2002   4.2390   4.3845   4.5929   4.6671   4.8030   5.1569   5.1832
    10.8267  11.5186  11.7748  12.0450  12.3818  13.1486  13.1764  13.3557
    13.4253  13.5543

     occupation numbers 
     1.0000   1.0000   1.0000   1.0000   1.0000   1.0000   1.0000   1.0000
     1.0000   1.0000   1.0000   1.0000   1.0000   1.0000   1.0000   1.0000
     1.0000   1.0000   1.0000   1.0000   1.0000   1.0000   1.0000   1.0000
     1.0000   1.0000   1.0000   1.0000   1.0000   1.0000   1.0000   1.0000
     1.0000   1.0000   1.0000   1.0000   1.0000   1.0000   1.0000   1.0000
     1.0000   1.0000   1.0000   1.0000   1.0000   1.0000   1.0000   1.0000
     1.0000   1.0000   1.0000   1.0000   1.0000   1.0000   1.0000   1.0000
     1.0000   1.0000   1.0000   1.0000   1.0000   1.0000   1.0000   1.0000
     1.0000   1.0000   1.0000   1.0000   1.0000   1.0000   1.0000   1.0000
     1.0000   1.0000   1.0000   1.0000   1.0000   1.0000   1.0000   1.0000
     1.0000   1.0000   1.0000   1.0000   1.0000   1.0000   1.0000   1.0000
     1.0000   1.0000   1.0000   1.0000   1.0000   1.0000   1.0000   1.0000
     1.0000   1.0000   1.0000   1.0000   1.0000   1.0000   1.0000   1.0000
     0.0000   0.0000   0.0000   0.0000   0.0000   0.0000   0.0000   0.0000
     0.0000   0.0000

          k = 0.0000 0.2351 0.0000 ( 35823 PWs)   bands (ev):

   -84.7860 -84.7860 -84.7843 -84.7843 -51.0098 -51.0098 -50.8588 -50.8588
   -50.7877 -50.7877 -50.7225 -50.7225 -50.7151 -50.7151 -50.6327 -50.6327
   -45.1788 -17.3694 -17.2054 -17.1196 -16.1928 -15.9930 -15.9090 -15.7022
   -13.8381 -13.6795 -13.6591 -13.5596 -13.4803 -13.4051 -13.3511 -13.3139
   -13.2731 -13.2524 -13.1306 -13.1025  -4.1286  -3.7331  -3.4006  -3.2461
    -2.1052  -1.9877  -1.6812  -1.6169  -1.4011  -1.2189  -1.1658  -1.0414
    -1.0189  -0.8898  -0.8341  -0.6756  -0.1177  -0.0195   0.2566   0.3676
     0.5091   0.5288   0.6069   0.7029   0.8778   0.9611   1.1208   1.1679
     1.3846   1.4042   1.5725   1.6154   1.7497   1.7842   1.9783   2.0539
     2.0820   2.1543   2.3266   2.3933   2.4235   2.5268   2.6229   2.7212
     2.8240   2.9582   3.0265   3.0826   3.2323   3.2668   3.3994   3.5163
     3.5442   3.6543   3.7722   3.8744   4.0143   4.0547   4.1678   4.2283
     4.2637   4.2836   4.4406   4.4968   4.7216   4.8533   5.1713   5.1931
     9.4520  11.2008  11.4867  12.0440  12.4551  13.1378  13.3755  13.4992
    13.7072  13.8052

     occupation numbers 
     1.0000   1.0000   1.0000   1.0000   1.0000   1.0000   1.0000   1.0000
     1.0000   1.0000   1.0000   1.0000   1.0000   1.0000   1.0000   1.0000
     1.0000   1.0000   1.0000   1.0000   1.0000   1.0000   1.0000   1.0000
     1.0000   1.0000   1.0000   1.0000   1.0000   1.0000   1.0000   1.0000
     1.0000   1.0000   1.0000   1.0000   1.0000   1.0000   1.0000   1.0000
     1.0000   1.0000   1.0000   1.0000   1.0000   1.0000   1.0000   1.0000
     1.0000   1.0000   1.0000   1.0000   1.0000   1.0000   1.0000   1.0000
     1.0000   1.0000   1.0000   1.0000   1.0000   1.0000   1.0000   1.0000
     1.0000   1.0000   1.0000   1.0000   1.0000   1.0000   1.0000   1.0000
     1.0000   1.0000   1.0000   1.0000   1.0000   1.0000   1.0000   1.0000
     1.0000   1.0000   1.0000   1.0000   1.0000   1.0000   1.0000   1.0000
     1.0000   1.0000   1.0000   1.0000   1.0000   1.0000   1.0000   1.0000
     1.0000   1.0000   1.0000   1.0000   1.0000   1.0000   1.0000   1.0000
     0.0000   0.0000   0.0000   0.0000   0.0000   0.0000   0.0000   0.0000
     0.0000   0.0000

          k = 0.0000 0.2351 0.2298 ( 35841 PWs)   bands (ev):

   -84.7860 -84.7860 -84.7843 -84.7843 -51.0098 -51.0098 -50.8588 -50.8588
   -50.7877 -50.7877 -50.7225 -50.7225 -50.7151 -50.7151 -50.6327 -50.6327
   -45.1788 -17.3705 -17.2055 -17.1198 -16.1749 -15.9802 -15.9036 -15.7094
   -13.8426 -13.7136 -13.6421 -13.5474 -13.4878 -13.4145 -13.3551 -13.3346
   -13.2691 -13.2549 -13.1378 -13.0999  -4.1021  -3.7270  -3.4075  -3.2076
    -2.0843  -1.9785  -1.7178  -1.5636  -1.3838  -1.1939  -1.1540  -1.0850
    -1.0087  -0.8929  -0.8541  -0.6477  -0.0796  -0.0291   0.2692   0.3836
     0.4700   0.5556   0.6248   0.7424   0.8320   0.9442   1.1014   1.1645
     1.2382   1.4015   1.5698   1.6341   1.7097   1.8467   2.0331   2.0393
     2.1229   2.1565   2.2916   2.3619   2.4556   2.5547   2.5909   2.7381
     2.8243   2.9685   2.9970   3.0730   3.2120   3.2791   3.3624   3.4516
     3.5184   3.6457   3.7742   3.8563   4.0080   4.0797   4.1501   4.2130
     4.2535   4.2924   4.4612   4.5292   4.7203   4.8461   5.1443   5.2170
     9.5848  11.2592  11.5401  12.0461  12.5489  13.1115  13.3327  13.5441
    13.6580  13.7496

     occupation numbers 
     1.0000   1.0000   1.0000   1.0000   1.0000   1.0000   1.0000   1.0000
     1.0000   1.0000   1.0000   1.0000   1.0000   1.0000   1.0000   1.0000
     1.0000   1.0000   1.0000   1.0000   1.0000   1.0000   1.0000   1.0000
     1.0000   1.0000   1.0000   1.0000   1.0000   1.0000   1.0000   1.0000
     1.0000   1.0000   1.0000   1.0000   1.0000   1.0000   1.0000   1.0000
     1.0000   1.0000   1.0000   1.0000   1.0000   1.0000   1.0000   1.0000
     1.0000   1.0000   1.0000   1.0000   1.0000   1.0000   1.0000   1.0000
     1.0000   1.0000   1.0000   1.0000   1.0000   1.0000   1.0000   1.0000
     1.0000   1.0000   1.0000   1.0000   1.0000   1.0000   1.0000   1.0000
     1.0000   1.0000   1.0000   1.0000   1.0000   1.0000   1.0000   1.0000
     1.0000   1.0000   1.0000   1.0000   1.0000   1.0000   1.0000   1.0000
     1.0000   1.0000   1.0000   1.0000   1.0000   1.0000   1.0000   1.0000
     1.0000   1.0000   1.0000   1.0000   1.0000   1.0000   1.0000   1.0000
     0.0000   0.0000   0.0000   0.0000   0.0000   0.0000   0.0000   0.0000
     0.0000   0.0000

          k = 0.0000 0.2351 0.4597 ( 35884 PWs)   bands (ev):

   -84.7860 -84.7860 -84.7843 -84.7843 -51.0098 -51.0098 -50.8588 -50.8588
   -50.7877 -50.7877 -50.7225 -50.7225 -50.7151 -50.7151 -50.6327 -50.6327
   -45.1788 -17.3711 -17.2055 -17.1202 -16.1323 -15.9618 -15.8823 -15.7220
   -13.8586 -13.7494 -13.6306 -13.5450 -13.4811 -13.4340 -13.3770 -13.3618
   -13.2760 -13.2607 -13.1582 -13.1018  -4.0223  -3.6994  -3.4099  -3.1637
    -2.0539  -1.9467  -1.6826  -1.5422  -1.3660  -1.1868  -1.1322  -1.0755
    -0.9624  -0.9082  -0.8607  -0.6602  -0.0814   0.0108   0.2950   0.3919
     0.4521   0.5791   0.6482   0.7579   0.8725   0.9171   1.0544   1.1301
     1.1959   1.4040   1.5170   1.6559   1.6714   1.8848   1.9666   2.0347
     2.0649   2.2367   2.2722   2.3678   2.4228   2.5538   2.6033   2.6939
     2.7929   2.8812   3.0085   3.0316   3.1025   3.2846   3.3536   3.3971
     3.5260   3.6562   3.7686   3.8398   3.9967   4.0580   4.1357   4.1942
     4.2535   4.3062   4.4536   4.5871   4.7312   4.8250   5.1359   5.2306
     9.9446  11.4025  11.6637  12.1084  12.7219  12.9136  13.2884  13.5479
    13.5725  13.6618

     occupation numbers 
     1.0000   1.0000   1.0000   1.0000   1.0000   1.0000   1.0000   1.0000
     1.0000   1.0000   1.0000   1.0000   1.0000   1.0000   1.0000   1.0000
     1.0000   1.0000   1.0000   1.0000   1.0000   1.0000   1.0000   1.0000
     1.0000   1.0000   1.0000   1.0000   1.0000   1.0000   1.0000   1.0000
     1.0000   1.0000   1.0000   1.0000   1.0000   1.0000   1.0000   1.0000
     1.0000   1.0000   1.0000   1.0000   1.0000   1.0000   1.0000   1.0000
     1.0000   1.0000   1.0000   1.0000   1.0000   1.0000   1.0000   1.0000
     1.0000   1.0000   1.0000   1.0000   1.0000   1.0000   1.0000   1.0000
     1.0000   1.0000   1.0000   1.0000   1.0000   1.0000   1.0000   1.0000
     1.0000   1.0000   1.0000   1.0000   1.0000   1.0000   1.0000   1.0000
     1.0000   1.0000   1.0000   1.0000   1.0000   1.0000   1.0000   1.0000
     1.0000   1.0000   1.0000   1.0000   1.0000   1.0000   1.0000   1.0000
     1.0000   1.0000   1.0000   1.0000   1.0000   1.0000   1.0000   1.0000
     0.0000   0.0000   0.0000   0.0000   0.0000   0.0000   0.0000   0.0000
     0.0000   0.0000

          k = 0.0000 0.2351 0.6895 ( 35919 PWs)   bands (ev):

   -84.7860 -84.7860 -84.7843 -84.7843 -51.0098 -51.0098 -50.8588 -50.8588
   -50.7877 -50.7877 -50.7225 -50.7225 -50.7151 -50.7151 -50.6327 -50.6327
   -45.1788 -17.3708 -17.2054 -17.1206 -16.0792 -15.9472 -15.8527 -15.7403
   -13.8814 -13.7817 -13.6179 -13.5534 -13.4782 -13.4492 -13.3900 -13.3833
   -13.2919 -13.2697 -13.1788 -13.1128  -3.9216  -3.6601  -3.3994  -3.1578
    -2.0448  -1.8791  -1.6010  -1.5345  -1.3628  -1.2100  -1.1449  -1.0430
    -0.9072  -0.8903  -0.8354  -0.7208  -0.0967   0.0522   0.3236   0.4603
     0.4960   0.5938   0.6449   0.7681   0.9316   0.9425   1.0374   1.1292
     1.2387   1.3703   1.4631   1.5696   1.7096   1.7996   1.8253   1.9938
     2.0414   2.1473   2.2725   2.3491   2.4653   2.5417   2.5886   2.6435
     2.7409   2.7926   2.9213   2.9515   3.0848   3.3185   3.3907   3.4377
     3.5533   3.6672   3.7168   3.9028   3.9583   4.0195   4.1184   4.1846
     4.2532   4.3105   4.4275   4.6349   4.7347   4.8216   5.1464   5.2294
    10.4311  11.5630  11.7715  12.2182  12.4876  13.0161  13.2701  13.3440
    13.4917  13.7179

     occupation numbers 
     1.0000   1.0000   1.0000   1.0000   1.0000   1.0000   1.0000   1.0000
     1.0000   1.0000   1.0000   1.0000   1.0000   1.0000   1.0000   1.0000
     1.0000   1.0000   1.0000   1.0000   1.0000   1.0000   1.0000   1.0000
     1.0000   1.0000   1.0000   1.0000   1.0000   1.0000   1.0000   1.0000
     1.0000   1.0000   1.0000   1.0000   1.0000   1.0000   1.0000   1.0000
     1.0000   1.0000   1.0000   1.0000   1.0000   1.0000   1.0000   1.0000
     1.0000   1.0000   1.0000   1.0000   1.0000   1.0000   1.0000   1.0000
     1.0000   1.0000   1.0000   1.0000   1.0000   1.0000   1.0000   1.0000
     1.0000   1.0000   1.0000   1.0000   1.0000   1.0000   1.0000   1.0000
     1.0000   1.0000   1.0000   1.0000   1.0000   1.0000   1.0000   1.0000
     1.0000   1.0000   1.0000   1.0000   1.0000   1.0000   1.0000   1.0000
     1.0000   1.0000   1.0000   1.0000   1.0000   1.0000   1.0000   1.0000
     1.0000   1.0000   1.0000   1.0000   1.0000   1.0000   1.0000   1.0000
     0.0000   0.0000   0.0000   0.0000   0.0000   0.0000   0.0000   0.0000
     0.0000   0.0000

          k = 0.0000 0.2351 0.9194 ( 35896 PWs)   bands (ev):

   -84.7860 -84.7860 -84.7843 -84.7843 -51.0098 -51.0098 -50.8588 -50.8588
   -50.7877 -50.7877 -50.7225 -50.7225 -50.7151 -50.7151 -50.6327 -50.6327
   -45.1788 -17.3698 -17.2053 -17.1209 -16.0379 -15.9490 -15.8274 -15.7540
   -13.8986 -13.8029 -13.6001 -13.5571 -13.4923 -13.4539 -13.4142 -13.3674
   -13.3094 -13.2761 -13.1918 -13.1250  -3.8438  -3.6246  -3.3843  -3.1968
    -2.0231  -1.8349  -1.5515  -1.5104  -1.3771  -1.2347  -1.1499  -1.0609
    -0.8836  -0.8633  -0.7864  -0.7606  -0.1108   0.0765   0.3363   0.4626
     0.5643   0.6393   0.6998   0.7962   0.9501   1.0266   1.0646   1.1212
     1.2833   1.3284   1.4283   1.5055   1.6087   1.6583   1.7919   1.9925
     2.0367   2.1239   2.1973   2.2677   2.4308   2.5108   2.5726   2.6207
     2.7257   2.8387   2.8487   2.8660   3.1128   3.3671   3.4492   3.4715
     3.5630   3.6251   3.7480   3.8904   3.9612   4.0293   4.1032   4.1836
     4.2229   4.3063   4.4035   4.6548   4.7144   4.8548   5.1616   5.2200
    10.8908  11.6309  11.7845  12.1580  12.3328  13.1386  13.2724  13.2798
    13.4523  13.6388

     occupation numbers 
     1.0000   1.0000   1.0000   1.0000   1.0000   1.0000   1.0000   1.0000
     1.0000   1.0000   1.0000   1.0000   1.0000   1.0000   1.0000   1.0000
     1.0000   1.0000   1.0000   1.0000   1.0000   1.0000   1.0000   1.0000
     1.0000   1.0000   1.0000   1.0000   1.0000   1.0000   1.0000   1.0000
     1.0000   1.0000   1.0000   1.0000   1.0000   1.0000   1.0000   1.0000
     1.0000   1.0000   1.0000   1.0000   1.0000   1.0000   1.0000   1.0000
     1.0000   1.0000   1.0000   1.0000   1.0000   1.0000   1.0000   1.0000
     1.0000   1.0000   1.0000   1.0000   1.0000   1.0000   1.0000   1.0000
     1.0000   1.0000   1.0000   1.0000   1.0000   1.0000   1.0000   1.0000
     1.0000   1.0000   1.0000   1.0000   1.0000   1.0000   1.0000   1.0000
     1.0000   1.0000   1.0000   1.0000   1.0000   1.0000   1.0000   1.0000
     1.0000   1.0000   1.0000   1.0000   1.0000   1.0000   1.0000   1.0000
     1.0000   1.0000   1.0000   1.0000   1.0000   1.0000   1.0000   1.0000
     0.0000   0.0000   0.0000   0.0000   0.0000   0.0000   0.0000   0.0000
     0.0000   0.0000

          k = 0.0000 0.4701 0.0000 ( 35853 PWs)   bands (ev):

   -84.7860 -84.7860 -84.7843 -84.7843 -51.0098 -51.0098 -50.8588 -50.8588
   -50.7877 -50.7877 -50.7225 -50.7225 -50.7151 -50.7151 -50.6327 -50.6327
   -45.1788 -17.3789 -17.2066 -17.1195 -16.1304 -15.9729 -15.9052 -15.7544
   -13.8727 -13.7086 -13.6463 -13.5781 -13.4940 -13.3757 -13.3687 -13.3162
   -13.2688 -13.2414 -13.1304 -13.0934  -4.0352  -3.6489  -3.4324  -3.2417
    -2.0547  -1.8972  -1.6783  -1.5771  -1.4122  -1.2511  -1.1388  -1.0282
    -0.9660  -0.9149  -0.8205  -0.6459  -0.1720  -0.0520   0.1792   0.2653
     0.4583   0.5157   0.5259   0.7161   0.8117   0.9322   1.1469   1.2167
     1.4143   1.4337   1.5298   1.6019   1.7584   1.8443   1.8774   2.0209
     2.1109   2.1425   2.2889   2.3323   2.3539   2.5407   2.6073   2.7854
     2.8117   2.9372   2.9609   3.0601   3.1545   3.2181   3.4183   3.5194
     3.5297   3.6475   3.7828   3.8226   3.9312   4.1147   4.1784   4.1855
[...]
     atom   14 type  3   force =    -0.03918973    0.00525233    0.00601638
     atom   15 type  3   force =     0.03755068   -0.00751734   -0.00505120
     atom   16 type  3   force =     0.03919085   -0.00525277   -0.00601784
     atom   17 type  3   force =    -0.03754324    0.00750702    0.00504690
     atom   18 type  3   force =    -0.00353203    0.00273141   -0.00132025
     atom   19 type  3   force =    -0.00625628   -0.00171872   -0.00324557
     atom   20 type  3   force =     0.00337828   -0.00055477    0.00360870
     atom   21 type  3   force =    -0.00076959   -0.00138184   -0.00136936
     atom   22 type  3   force =     0.00352839   -0.00274055    0.00132559
     atom   23 type  3   force =     0.00625518    0.00171629    0.00324175
     atom   24 type  3   force =    -0.00338201    0.00056950   -0.00360093
     atom   25 type  3   force =     0.00076848    0.00138558    0.00136518
     The non-local contrib.  to forces
     atom    1 type  2   force =    -0.00000118    0.00001361    0.00001563
     atom    2 type  1   force =     0.07652509   -0.10527344   -0.19540537
     atom    3 type  1   force =    -0.05657669   -0.12636233    0.12571021
     atom    4 type  1   force =    -0.07652759    0.10526892    0.19538106
     atom    5 type  1   force =     0.05657747    0.12638538   -0.12568910
     atom    6 type  4   force =     0.01862304    0.04659122    0.02814099
     atom    7 type  4   force =    -0.06999214    0.02523337   -0.06487510
     atom    8 type  4   force =    -0.01864293   -0.04659738   -0.02817494
     atom    9 type  4   force =     0.06998923   -0.02523180    0.06489605
     atom   10 type  3   force =    -0.51517761   -0.28184358   -1.07009204
     atom   11 type  3   force =    -0.05048896    0.23382702   -1.46434782
     atom   12 type  3   force =     0.51512799    0.28181910    1.07007047
     atom   13 type  3   force =     0.05047670   -0.23382172    1.46435709
     atom   14 type  3   force =     1.38604464   -0.23700383   -0.64718078
     atom   15 type  3   force =    -1.32990340    0.29514073   -0.17311394
     atom   16 type  3   force =    -1.38604637    0.23700502    0.64716085
     atom   17 type  3   force =     1.32989393   -0.29513874    0.17316599
     atom   18 type  3   force =    -0.02753349   -1.38087476    0.80690036
     atom   19 type  3   force =     0.61396354    0.69923415    0.91578820
     atom   20 type  3   force =     0.03957889   -1.65378740   -0.97117567
     atom   21 type  3   force =    -0.08097589    1.02121077   -0.56805792
     atom   22 type  3   force =     0.02754159    1.38089061   -0.80690678
     atom   23 type  3   force =    -0.61394826   -0.69922394   -0.91579370
     atom   24 type  3   force =    -0.03958088    1.65377212    0.97120601
     atom   25 type  3   force =     0.08097880   -1.02121731    0.56804372
     The ionic contribution  to forces
     atom    1 type  2   force =     0.00055983    0.00046056    0.00019490
     atom    2 type  1   force =     8.85055749    5.51990983   -2.42690215
     atom    3 type  1   force =     5.03711266   -9.75860385   -2.80190964
     atom    4 type  1   force =    -8.85096473   -5.51985180    2.42675113
     atom    5 type  1   force =    -5.03753031    9.75825504    2.80198620
     atom    6 type  4   force =    -1.27874909    2.11726211   -2.24047744
     atom    7 type  4   force =     2.93457240   -0.94481485    1.24365534
     atom    8 type  4   force =     1.27881464   -2.11724671    2.24030480
     atom    9 type  4   force =    -2.93468775    0.94480160   -1.24354134
     atom   10 type  3   force =    -0.20544693    6.74437459    0.02225221
     atom   11 type  3   force =     7.30417240   -4.19334797    2.18542396
     atom   12 type  3   force =     0.20575266   -6.74414891   -0.02186797
     atom   13 type  3   force =    -7.30421271    4.19330234   -2.18560573
     atom   14 type  3   force =     0.14187401    1.57894795    7.86573717
     atom   15 type  3   force =     0.37614408   -3.33787813    5.16474276
     atom   16 type  3   force =    -0.14206351   -1.57894419   -7.86570158
     atom   17 type  3   force =    -0.37570573    3.33754536   -5.16511636
     atom   18 type  3   force =    -6.10542326    8.75795034    0.75339075
     atom   19 type  3   force =     2.33471874   -1.43297457   -3.48784721
     atom   20 type  3   force =     4.25168088    6.40422713    9.00135483
     atom   21 type  3   force =    -9.05562421   -0.83397144   -0.45653398
     atom   22 type  3   force =     6.10550409   -8.75796711   -0.75334983
     atom   23 type  3   force =    -2.33494365    1.43293123    3.48783865
     atom   24 type  3   force =    -4.25158100   -6.40422885   -9.00133597
     atom   25 type  3   force =     9.05546901    0.83401029    0.45655649
     The local contribution  to forces
     atom    1 type  2   force =    -0.00055052   -0.00046491   -0.00020561
     atom    2 type  1   force =    -8.92306979   -5.41565775    2.61324428
     atom    3 type  1   force =    -4.97844131    9.88308153    2.67711113
     atom    4 type  1   force =     8.92346802    5.41560623   -2.61305838
     atom    5 type  1   force =     4.97885821   -9.88275425   -2.67721039
     atom    6 type  4   force =     1.28659828   -2.17054803    2.20573588
     atom    7 type  4   force =    -2.90192709    0.92579831   -1.18022553
     atom    8 type  4   force =    -1.28664968    2.17053253   -2.20558071
     atom    9 type  4   force =     2.90203364   -0.92578785    1.18011962
     atom   10 type  3   force =     0.72209147   -6.46305583    1.03937519
     atom   11 type  3   force =    -7.25339014    3.96055711   -0.73126638
     atom   12 type  3   force =    -0.72232422    6.46286125   -1.03970057
     atom   13 type  3   force =     7.25344236   -3.96051721    0.73141920
     atom   14 type  3   force =    -1.55593401   -1.33876924   -7.21870440
     atom   15 type  3   force =     0.98075114    3.03786544   -4.99877801
     atom   16 type  3   force =     1.55611084    1.33876347    7.21868254
     atom   17 type  3   force =    -0.98116452   -3.03754405    4.99909616
     atom   18 type  3   force =     6.12975446   -7.38680851   -1.55474833
     atom   19 type  3   force =    -2.94970152    0.73775299    2.57700408
     atom   20 type  3   force =    -4.28771078   -4.76542482   -8.03562272
     atom   21 type  3   force =     9.13528108   -0.17979482    1.01806091
     atom   22 type  3   force =    -6.12983561    7.38679855    1.55471537
     atom   23 type  3   force =     2.94990588   -0.73773085   -2.57699172
     atom   24 type  3   force =     4.28761518    4.76545912    8.03558140
     atom   25 type  3   force =    -9.13513734    0.17977528   -1.01807202
     The core correction contribution to forces
     atom    1 type  2   force =     0.00000000    0.00000000    0.00000000
     atom    2 type  1   force =    -0.00244241    0.00084222    0.00128194
     atom    3 type  1   force =     0.00128187   -0.00007317    0.00035530
     atom    4 type  1   force =     0.00244249   -0.00084232   -0.00128206
     atom    5 type  1   force =    -0.00128198    0.00007278   -0.00035506
     atom    6 type  4   force =    -0.00127919   -0.00222783   -0.00079449
     atom    7 type  4   force =     0.00554676   -0.00178414    0.00369734
     atom    8 type  4   force =     0.00128115    0.00222843    0.00079756
     atom    9 type  4   force =    -0.00554657    0.00178404   -0.00369924
     atom   10 type  3   force =     0.00408103    0.00244627    0.00922602
     atom   11 type  3   force =     0.00119457   -0.00235109    0.01266790
     atom   12 type  3   force =    -0.00408081   -0.00244611   -0.00922634
     atom   13 type  3   force =    -0.00119451    0.00235102   -0.01266766
     atom   14 type  3   force =    -0.01118232    0.00207743    0.00616237
     atom   15 type  3   force =     0.01056296   -0.00264529    0.00209860
     atom   16 type  3   force =     0.01118232   -0.00207744   -0.00616216
     atom   17 type  3   force =    -0.01056299    0.00264540   -0.00209903
     atom   18 type  3   force =    -0.00032332    0.01246365   -0.00686486
     atom   19 type  3   force =    -0.00523866   -0.00573598   -0.00818949
     atom   20 type  3   force =    -0.00016864    0.01443189    0.00905200
     atom   21 type  3   force =     0.00054553   -0.00882208    0.00516242
     atom   22 type  3   force =     0.00032331   -0.01246360    0.00686479
     atom   23 type  3   force =     0.00523854    0.00573594    0.00818958
     atom   24 type  3   force =     0.00016871   -0.01443200   -0.00905240
     atom   25 type  3   force =    -0.00054554    0.00882208   -0.00516225
     The Hubbard contrib.    to forces
     atom    1 type  2   force =     0.00000000    0.00000000    0.00000000
     atom    2 type  1   force =     0.00000000    0.00000000    0.00000000
     atom    3 type  1   force =     0.00000000    0.00000000    0.00000000
     atom    4 type  1   force =     0.00000000    0.00000000    0.00000000
     atom    5 type  1   force =     0.00000000    0.00000000    0.00000000
     atom    6 type  4   force =     0.00000000    0.00000000    0.00000000
     atom    7 type  4   force =     0.00000000    0.00000000    0.00000000
     atom    8 type  4   force =     0.00000000    0.00000000    0.00000000
     atom    9 type  4   force =     0.00000000    0.00000000    0.00000000
     atom   10 type  3   force =     0.00000000    0.00000000    0.00000000
     atom   11 type  3   force =     0.00000000    0.00000000    0.00000000
     atom   12 type  3   force =     0.00000000    0.00000000    0.00000000
     atom   13 type  3   force =     0.00000000    0.00000000    0.00000000
     atom   14 type  3   force =     0.00000000    0.00000000    0.00000000
     atom   15 type  3   force =     0.00000000    0.00000000    0.00000000
     atom   16 type  3   force =     0.00000000    0.00000000    0.00000000
     atom   17 type  3   force =     0.00000000    0.00000000    0.00000000
     atom   18 type  3   force =     0.00000000    0.00000000    0.00000000
     atom   19 type  3   force =     0.00000000    0.00000000    0.00000000
     atom   20 type  3   force =     0.00000000    0.00000000    0.00000000
     atom   21 type  3   force =     0.00000000    0.00000000    0.00000000
     atom   22 type  3   force =     0.00000000    0.00000000    0.00000000
     atom   23 type  3   force =     0.00000000    0.00000000    0.00000000
     atom   24 type  3   force =     0.00000000    0.00000000    0.00000000
     atom   25 type  3   force =     0.00000000    0.00000000    0.00000000
     The SCF correction term to forces
     atom    1 type  2   force =    -0.00000598    0.00000157   -0.00000029
     atom    2 type  1   force =    -0.00000075    0.00000049    0.00000204
     atom    3 type  1   force =    -0.00000472   -0.00000134   -0.00000257
     atom    4 type  1   force =     0.00000531   -0.00000003   -0.00000358
     atom    5 type  1   force =     0.00000177   -0.00000308   -0.00000109
     atom    6 type  4   force =    -0.00000362   -0.00000092    0.00000013
     atom    7 type  4   force =     0.00000362    0.00000039    0.00000019
     atom    8 type  4   force =    -0.00000298   -0.00000038    0.00000017
     atom    9 type  4   force =     0.00000372    0.00000012    0.00000061
     atom   10 type  3   force =    -0.00000533   -0.00000182   -0.00000259
     atom   11 type  3   force =     0.00000291    0.00000056    0.00000098
     atom   12 type  3   force =    -0.00000273   -0.00000081   -0.00000212
     atom   13 type  3   force =     0.00000330    0.00000009   -0.00000026
     atom   14 type  3   force =     0.00000781    0.00000023    0.00000212
     atom   15 type  3   force =    -0.00000425    0.00000011   -0.00000051
     atom   16 type  3   force =     0.00000741    0.00000057    0.00000260
     atom   17 type  3   force =    -0.00000408   -0.00000075    0.00000024
     atom   18 type  3   force =    -0.00000657    0.00000088    0.00000193
     atom   19 type  3   force =     0.00000148    0.00000489   -0.00000104
     atom   20 type  3   force =    -0.00000223   -0.00000137    0.00000035
     atom   21 type  3   force =     0.00000375   -0.00000408   -0.00000069
     atom   22 type  3   force =    -0.00000515    0.00000119    0.00000214
     atom   23 type  3   force =     0.00000253    0.00000410   -0.00000096
     atom   24 type  3   force =    -0.00000416   -0.00000069    0.00000013
     atom   25 type  3   force =     0.00000339   -0.00000456   -0.00000066

     Total force =     0.101231     Total SCF correction =     0.000025


     Computing stress (Cartesian axis) and pressure


     negative rho (up, down):  0.000E+00 8.451E-04
          total   stress  (Ry/bohr**3)                   (kbar)     P=       48.23
   0.00021272   0.00005734  -0.00005470           31.29        8.44       -8.05
   0.00005734   0.00044646   0.00004024            8.44       65.68        5.92
  -0.00005470   0.00004024   0.00032437           -8.05        5.92       47.72

     kinetic stress (kbar)  27029.65     93.11    -46.79
                               93.11  27133.00      9.65
                              -46.79      9.65  27162.19

     local   stress (kbar)  -8514.68   3862.74  -8266.03
                             3862.74 -13962.58  -1559.93
                            -8266.03  -1559.93  -5555.71

     nonloc. stress (kbar)  -6913.57      3.93     -7.13
                                3.93  -6884.66    -11.11
                               -7.13    -11.11  -6905.50

     hartree stress (kbar)  14745.74  -1420.44   3496.48
                            -1420.44  17591.89    677.85
                             3496.48    677.85  13990.02

     exc-cor stress (kbar)  -2858.16     -3.54      3.57
                               -3.54  -2861.94      0.18
                                3.57      0.18  -2862.09

     corecor stress (kbar)  -3169.57      0.41     -0.47
                                0.41  -3169.32      0.72
                               -0.47      0.72  -3168.74

     ewald   stress (kbar) -20288.12  -2527.77   4812.32
                            -2527.77 -17780.72    888.56
                             4812.32    888.56 -22612.45

     hubbard stress (kbar)      0.00      0.00      0.00
                                0.00      0.00      0.00
                                0.00      0.00      0.00

     DFT-D   stress (kbar)      0.00      0.00      0.00
                                0.00      0.00      0.00
                                0.00      0.00      0.00

     XDM     stress (kbar)      0.00      0.00      0.00
                                0.00      0.00      0.00
                                0.00      0.00      0.00

     dft-nl  stress (kbar)      0.00      0.00      0.00
                                0.00      0.00      0.00
                                0.00      0.00      0.00

     TS-vdW  stress (kbar)      0.00      0.00      0.00
                                0.00      0.00      0.00
                                0.00      0.00      0.00



     init_run     :   1124.90s CPU   1286.07s WALL (       1 calls)
     electrons    :  85780.60s CPU  99106.84s WALL (       1 calls)
     forces       :    145.03s CPU    164.52s WALL (       1 calls)
     stress       :   1274.07s CPU   1437.38s WALL (       1 calls)

     Called by init_run:
     wfcinit      :   1108.37s CPU   1267.11s WALL (       1 calls)
     wfcinit:atom :      1.50s CPU      1.66s WALL (     316 calls)
     wfcinit:wfcr :   1097.73s CPU   1254.73s WALL (     316 calls)
     potinit      :      8.03s CPU      8.28s WALL (       1 calls)
     hinit0       :      4.77s CPU      6.05s WALL (       1 calls)

     Called by electrons:
     c_bands      :  71194.38s CPU  82230.10s WALL (      33 calls)
     sum_band     :  14347.48s CPU  16598.57s WALL (      33 calls)
     v_of_rho     :     65.73s CPU     75.26s WALL (      34 calls)
     v_h          :      5.58s CPU      6.31s WALL (      34 calls)
     v_xc         :     63.80s CPU     73.15s WALL (      36 calls)
     newd         :     84.99s CPU    102.69s WALL (      34 calls)
     PAW_pot      :     34.70s CPU     40.12s WALL (      34 calls)
     mix_rho      :     46.19s CPU     51.41s WALL (      33 calls)

     Called by c_bands:
     init_us_2    :    116.16s CPU    130.52s WALL (   21804 calls)
     cegterg      :  70359.53s CPU  81232.23s WALL (   10428 calls)

     Called by sum_band:
     sum_band:wei :      0.58s CPU      0.65s WALL (      33 calls)
     sum_band:loo :  14153.65s CPU  16372.43s WALL (      33 calls)
     sum_band:buf :     32.20s CPU     34.83s WALL (   10428 calls)
     sum_band:ini :     49.02s CPU     54.58s WALL (   10428 calls)
     sum_band:cal :    872.03s CPU   1014.47s WALL (   10428 calls)
     sum_band:bec :      2.55s CPU      2.58s WALL (   10428 calls)
     addusdens    :    167.63s CPU    197.05s WALL (      33 calls)
     addusd:skk   :      1.44s CPU      1.64s WALL (      99 calls)
     addusd:dgemm :      6.98s CPU     14.05s WALL (     198 calls)
     addusd:qvan2 :    158.01s CPU    178.07s WALL (     198 calls)

     Called by *egterg:
     cdiaghg      :   1233.45s CPU   1457.56s WALL (   37158 calls)
     cegterg:over :   3396.00s CPU   3898.62s WALL (   26730 calls)
     cegterg:upda :    338.71s CPU    390.22s WALL (   26730 calls)
     cegterg:last :    613.09s CPU    714.16s WALL (   16660 calls)
     h_psi        :  62324.21s CPU  71954.09s WALL (   37474 calls)
     s_psi        :    696.36s CPU    818.12s WALL (   37474 calls)
     g_psi        :     38.45s CPU     44.91s WALL (   26730 calls)

     Called by h_psi:
     h_psi:calbec :   2563.20s CPU   2948.76s WALL (   37474 calls)
     vloc_psi     :  58971.27s CPU  68049.52s WALL (   37474 calls)
     add_vuspsi   :    717.26s CPU    861.98s WALL (   37474 calls)

     General routines
     calbec       :   3740.82s CPU   4299.08s WALL (   49482 calls)
     fft          :     98.02s CPU    110.61s WALL (     888 calls)
     ffts         :      2.82s CPU      3.37s WALL (     134 calls)
     fftw         :  69925.94s CPU  81020.22s WALL ( 6502484 calls)
     interpolate  :      7.53s CPU      8.61s WALL (      68 calls)

     Parallel routines
     fft_scatt_xy :   1132.36s CPU   1155.17s WALL ( 6503506 calls)
     fft_scatt_yz :  65815.72s CPU  76806.30s WALL ( 6503506 calls)

     PAW routines
     PAW_pot      :     34.70s CPU     40.12s WALL (      34 calls)

     PWSCF        :   1d 0h32m CPU   1d 4h20m WALL


   This run was terminated on:  11:30:14  15Jan2023            

=------------------------------------------------------------------------------=
   JOB DONE.
=------------------------------------------------------------------------------=
Note: The following floating-point exceptions are signalling: IEEE_INVALID_FLAG IEEE_DENORMAL
Note: The following floating-point exceptions are signalling: IEEE_DENORMAL
Note: The following floating-point exceptions are signalling: IEEE_UNDERFLOW_FLAG IEEE_DENORMAL
Note: The following floating-point exceptions are signalling: IEEE_DENORMAL
Note: The following floating-point exceptions are signalling: IEEE_DENORMAL
Note: The following floating-point exceptions are signalling: IEEE_DENORMAL
Note: The following floating-point exceptions are signalling: IEEE_DENORMAL
Note: The following floating-point exceptions are signalling: IEEE_DENORMAL
Note: The following floating-point exceptions are signalling: IEEE_INVALID_FLAG IEEE_DENORMAL
Note: The following floating-point exceptions are signalling: IEEE_DENORMAL
Note: The following floating-point exceptions are signalling: IEEE_DENORMAL
Note: The following floating-point exceptions are signalling: IEEE_DENORMAL
Note: The following floating-point exceptions are signalling: IEEE_INVALID_FLAG IEEE_DENORMAL
Note: The following floating-point exceptions are signalling: IEEE_DENORMAL
