5.21221967 0 0 2.319547505689 4.667647507812 0 2.319548748249 1.437489460503 4.44078299725
4.95159 0 0 2.319539894271 4.667629325352 0 2.319539894271 1.437483580661 4.440766203507
5.03846 0 0 2.319539894271 4.667629325352 0 2.319539894271 1.437483580661 4.440766203507
5.12533 0 0 2.319539894271 4.667629325352 0 2.319539894271 1.437483580661 4.440766203507
5.29907 0 0 2.319539894271 4.667629325352 0 2.319539894271 1.437483580661 4.440766203507
5.38594 0 0 2.319539894271 4.667629325352 0 2.319539894271 1.437483580661 4.440766203507
5.47281 0 0 2.319539894271 4.667629325352 0 2.319539894271 1.437483580661 4.440766203507
4.95159 0 0 2.203562899558 4.434247859084 0 2.319539894271 1.437483580661 4.440766203507
5.03846 0 0 2.242221897796 4.512041681173 0 2.319539894271 1.437483580661 4.440766203507
5.12533 0 0 2.280880896034 4.589835503263 0 2.319539894271 1.437483580661 4.440766203507
5.29907 0 0 2.358198892509 4.745423147441 0 2.319539894271 1.437483580661 4.440766203507
5.38594 0 0 2.396857890747 4.82321696953 0 2.319539894271 1.437483580661 4.440766203507
5.47281 0 0 2.435516888985 4.901010791619 0 2.319539894271 1.437483580661 4.440766203507
4.95159 0 0 2.203562899558 4.434247859084 0 2.203562899558 1.365609401628 4.218727893332
5.03846 0 0 2.242221897796 4.512041681173 0 2.242221897796 1.389567461306 4.29274066339
5.12533 0 0 2.280880896034 4.589835503263 0 2.280880896034 1.413525520983 4.366753433449
5.29907 0 0 2.358198892509 4.745423147441 0 2.358198892509 1.461441640339 4.514778973566
5.38594 0 0 2.396857890747 4.82321696953 0 2.396857890747 1.485399700016 4.588791743624
5.47281 0 0 2.435516888985 4.901010791619 0 2.435516888985 1.509357759694 4.662804513683