4.458517505863 1.20133832694 0.873835074284 3.059957397932 1.896341481262 3.020882600926 3.059956797174 3.458071214607 0.873835074284 6.791359126765 2.647065753708 3.566947922966 5.392798418075 4.903798641375 3.566947922966 6.791358526007 4.208795487053 1.419900396324 8.105377793857 6.077163230726 4.420435329556 9.049285242334 5.60809604487 2.971363429724 9.049285647794 4.554063172452 4.420435329556 0.802030276145 1.551073795863 0.020347667693 1.745938130081 0.027973737589 0.020347667693 0.802030681605 0.497040923446 1.469419567526 4.925657961969 3.052568484158 2.220391498625 6.059987734031 3.755544480374 2.731725456843 3.791328189907 2.349592487941 1.709057540406
4.272593399541 1.204794316183 0.878535184762 3.000163470649 1.903376003484 3.021328072792 2.999764750889 3.462519294225 0.879969222631 6.573380127001 2.650515941296 3.571637848879 5.300950198109 4.910821413823 3.567391329772 6.573105591667 4.213240607826 1.426032479611 7.922346819013 6.08060000278 4.425122027829 8.781335273438 5.615116111363 2.971809088857 8.780936553678 4.558506758928 4.426556065698 0.792208324212 1.554528476594 0.025051005811 1.651196778637 0.035015727227 0.020804486705 0.792208324212 0.500499618644 1.474117425677 4.786833891038 3.059598552898 2.220839997714 5.891027379414 3.758990402672 2.736418541323 3.682516218236 2.356625327335 1.709507973211
4.34905507528 1.200695251774 0.882414691375 3.030033565065 1.890439400865 3.02057898531 3.028356068174 3.455869126502 0.875241119931 6.660523859159 2.646416876887 3.575517355492 5.341502348945 4.897884811205 3.56664224229 6.654379220452 4.206590440102 1.421304376912 7.997839807381 6.076500938371 4.429001534443 8.880583485265 5.602179508744 2.971060001375 8.878905988374 4.551856591205 4.421827962999 0.80997393896 1.550429412184 0.028930512425 1.692717616844 0.022079124608 0.020055399223 0.80997393896 0.496400554234 1.477996932291 4.843045141204 3.046661950279 2.220090910232 5.961832601972 3.754891338262 2.740298047937 3.728724822253 2.343688724716 1.708758885729
4.405719161435 1.196346935251 0.875713199903 3.048099809601 1.887643719968 3.026089930604 3.037684997223 3.454877340768 0.875193461552 6.727870001735 2.642068560364 3.56881586402 5.370250649901 4.895089130307 3.572153187585 6.716390461001 4.205598654369 1.421256718533 8.053535206166 6.072152621848 4.422300042971 8.968027847211 5.599383827846 2.976570946669 8.957613034833 4.550864805471 4.42178030462 0.807941964125 1.546081095661 0.022229020953 1.72243460517 0.01928344371 0.025566344517 0.807941964125 0.492052237711 1.471295440819 4.88745254149 3.043866269381 2.225601855526 6.012840234947 3.75054302174 2.733596556465 3.763129576388 2.340893043818 1.714269831023
4.515251474546 1.199346270947 0.866039165644 3.071230135395 1.893019476223 3.022462459146 3.085666297507 3.463397519271 0.869423744877 6.858766427686 2.64506789606 3.559141829761 5.414745088535 4.900464886562 3.568525716126 6.869736384285 4.214118832871 1.415487001858 8.161130144537 6.075151957543 4.412626008712 9.129914407825 5.604759584102 2.97294347521 9.144350569937 4.559384983973 4.416010587945 0.800082155256 1.549080431357 0.012554986693 1.768866418544 0.024659199965 0.021938873058 0.800082155256 0.495051573407 1.46162140656 4.963265178784 3.049242025636 2.221974384068 6.111059641698 3.753542357435 2.723922522206 3.818936921382 2.346268800073 1.710642359565
4.574821966373 1.199870450731 0.866543043685 3.089759370336 1.893632534873 3.014457919427 3.088675148795 3.451471609574 0.878199582069 6.929018975933 2.645592075844 3.559645707802 5.443956379896 4.901077945212 3.560521176407 6.925427547073 4.202192923175 1.42426283905 8.219731948994 6.075676137328 4.413129886753 9.217821760176 5.605372642752 2.964938935492 9.216737538635 4.547459074277 4.424786425137 0.800956586093 1.549604611141 0.013058864734 1.799046397275 0.025272258616 0.01393433334 0.800956586093 0.495575753191 1.462125284601 5.008135569475 3.049855084287 2.213969844349 6.164973680346 3.75406653722 2.724426400246 3.853804665923 2.346881858724 1.702637819846
4.62947497674 1.210164240879 0.869152372177 3.114054685926 1.901738741721 3.016250841975 3.110278943869 3.454281000489 0.873647463413 6.99435404272 2.655885865992 3.562255036294 5.478933751906 4.909184152061 3.562314098956 6.999713653647 4.20500231409 1.419710720393 8.273416271991 6.085969927475 4.415739215244 9.311495193176 5.6134788496 2.96673185804 9.307719451118 4.550268465192 4.42023430648 0.79691353547 1.559898401289 0.015668193226 1.834992456655 0.033378465464 0.015727255888 0.79691353547 0.505869543339 1.464734613092 5.058772040815 3.057961291135 2.215762766897 6.213970237533 3.764360327367 2.727035728738 3.894438491114 2.354988065572 1.704430742394
4.248477189181 1.163726958373 0.881313056162 2.990072651465 1.858921045559 3.024556555945 2.931216483717 3.298612696342 0.881594578571 6.535002689509 2.580750598105 3.574415720279 5.220525130481 4.72483226568 3.570619812926 6.490296097363 4.020636024561 1.427657835552 7.805606393664 5.853144170605 4.42789989923 8.678620239266 5.384272679074 2.97503757201 8.713681545974 4.397202597775 4.428181421639 0.752537627252 1.482160696671 0.027828877211 1.663395925999 0.035415053448 0.024032969858 0.790382080397 0.504286544979 1.476895297078 4.741575947632 2.944376499864 2.224068480867 5.818389873776 3.620283240819 2.739196412723 3.650612445887 2.268275983234 1.712736456364
4.323845571176 1.177440975115 0.86452684365 3.010853740562 1.865765263117 3.030452800851 2.966101409737 3.3587814668 0.873841060961 6.625806870301 2.604030609974 3.557629507767 5.275433025479 4.778854546644 3.576516057832 6.58261707726 4.090370790147 1.419904317941 7.910880826618 5.928987678803 4.411113686718 8.799654184102 5.453246388086 2.980933816916 8.817513502915 4.456503889323 4.420427904029 0.774394777123 1.506308187451 0.0110426647 1.688397770037 0.027307842957 0.029929214764 0.799624412553 0.503049133673 1.460109084566 4.800420567219 2.974809749124 2.229964725773 5.904275567683 3.666543858909 2.722410200212 3.695003028972 2.28975166285 1.71863270127
4.390569162753 1.181803940422 0.869735604331 3.031075266045 1.877764929106 3.028805286165 3.015624345532 3.408892290706 0.873844098854 6.707966260675 2.617959570409 3.562838268448 5.329781356863 4.838032276039 3.574868543145 6.689576066932 4.150047609179 1.419907355835 8.007510469154 5.995480135564 4.416322447398 8.920128565324 5.52737554553 2.979286302229 8.935983469631 4.505747234319 4.420430941922 0.787607136576 1.521104626796 0.01625142538 1.712840050461 0.024356080897 0.028281700078 0.800221954291 0.492460670931 1.465317845246 4.858705623193 3.010398446816 2.228317211087 5.981516471173 3.703453425564 2.727618960892 3.738834048443 2.316382790898 1.716985186584
4.522853730933 1.209502604849 0.879295108996 3.077323043456 1.915440804066 3.026748830894 3.093917923692 3.502364614594 0.876036843882 6.87112242645 2.664790225089 3.572397773113 5.444282746078 4.970064277811 3.572812087875 6.882741752847 4.262651923321 1.422100100863 8.199607139254 6.1474377829 4.425881952064 9.166882054216 5.6893104034 2.977229846959 9.152171109632 4.597484600386 4.42262368695 0.81286924051 1.569670239296 0.025810930045 1.767529337757 0.03212909976 0.026225244807 0.800254422795 0.49025647926 1.474877349912 4.981080461586 3.095252385183 2.226260755816 6.134835663179 3.796245292685 2.737178465557 3.832300813832 2.383321589975 1.714928731313
4.584575849183 1.22285211129 0.877377388495 3.109587902656 1.932813881921 3.026258964604 3.14142265341 3.565245718273 0.867907501494 6.948280343497 2.687705726657 3.570480052612 5.510674411179 5.034615419072 3.572322221585 6.987682536442 4.335099022128 1.413970758474 8.291235308463 6.222916780796 4.423964231563 9.299399769155 5.768812972709 2.976739980669 9.26862287027 4.659498225156 4.414494344561 0.821080126636 1.593453219774 0.023893209544 1.804014951898 0.034550749565 0.025735378517 0.795850491206 0.488654557652 1.472959629411 5.051408851277 3.13621449474 2.225770889526 6.207075093341 3.842141400473 2.735260745056 3.888175167021 2.415326129888 1.714438865023
4.659898643076 1.239119322167 0.869932778731 3.133832523171 1.9445837644 3.023970178864 3.188000579482 3.611196533657 0.869728365106 7.039038936188 2.713538932661 3.563035442849 5.569045837595 5.093563364957 3.570033435845 7.091696516392 4.390615832639 1.415791622087 8.396464153316 6.301313483128 4.416519621799 9.423897245409 5.842712346643 2.974451194929 9.384147827264 4.70458156163 4.416315208174 0.842891688406 1.620153904689 0.016448599781 1.832480327354 0.031369203996 0.023446592777 0.805047235261 0.489970340481 1.465515019647 5.113717002282 3.171573408922 2.223482103786 6.292915199147 3.890955212698 2.727816135293 3.936029281524 2.441727474426 1.712150079283
4.227568763767 1.138098286924 0.839088293789 2.911001524699 1.800598764369 2.868367819781 2.915067347596 3.292901841156 0.839213942502 6.443760015651 2.511533830782 3.3975358247 5.127192776583 4.657671904191 3.387127913912 6.45988573411 4.006087089077 1.357974036634 7.69207375326 5.770113689191 4.208345794703 8.600842371968 5.326751866854 2.821324785042 8.604908194865 4.334089932624 4.208471443416 0.753919168383 1.470345739314 0.028278323786 1.66268778709 0.025656501924 0.017870412998 0.753919168383 0.469018324261 1.404891422659 4.683410717956 2.899010186311 2.107904148456 5.748960153083 3.564584569088 2.604077482522 3.605801387267 2.231185622027 1.622138725179
4.305926127776 1.156260251612 0.84540939555 2.963885211648 1.825721077725 2.923598811592 2.948618755836 3.34952148923 0.834694515759 6.560997927938 2.553791155888 3.448741970864 5.218957011811 4.732918307719 3.451459960007 6.555626938604 4.075218759044 1.362555664174 7.831211906558 5.869539081989 4.273776677183 8.753547828167 5.413736515341 2.875730460455 8.738281372355 4.408976038443 4.263061797391 0.771335311419 1.494336606675 0.020374689231 1.693671233028 0.019639477343 0.023092678375 0.771335311419 0.47544204399 1.421138895102 4.767389303032 2.943402875491 2.14979367235 5.854008594097 3.625316468551 2.641363306893 3.670874545489 2.26386209078 1.655506048664
4.377331615444 1.18904383918 0.854414285736 3.005971777199 1.864493967618 2.971079527128 3.010201138923 3.401006530795 0.865996816075 6.671283963885 2.610670103874 3.502631905451 5.29992412564 4.821815287785 3.508041729825 6.679399117946 4.139215822503 1.402959018773 7.963398183516 5.983586097666 4.341891348086 8.895456162968 5.514371740365 2.922385859591 8.899685524692 4.478727537753 4.353473878425 0.781799578116 1.532949096916 0.015154843101 1.713857557568 0.027273029298 0.020564667475 0.781799578116 0.496487386599 1.44007015597 4.84057076671 3.001446141208 2.183932919968 5.952105158771 3.700669990893 2.681332919688 3.725150582313 2.310189136071 1.681123095873
4.537317902014 1.231020037715 0.882331368367 3.10987654881 1.921431128014 3.0698791569 3.120457835256 3.509031515926 0.894008755622 6.909031347013 2.700837023246 3.620319076886 5.481589993809 4.979000628526 3.625043468164 6.914035406789 4.27226485142 1.449173066885 8.244946048665 6.188089152421 4.488027992153 9.19900447308 5.695033571025 3.019534856566 9.209585759526 4.623285438374 4.499705379407 0.819903422743 1.586583100798 0.014622453101 1.773961847158 0.021931513819 0.019346844378 0.819903422743 0.514987095216 1.487839979965 5.006665334576 3.096924053251 2.256049613904 6.165473599352 3.827786058978 2.771179447538 3.85343429647 2.382234607263 1.736195388993
4.611725090365 1.2511735501 0.911403810374 3.159877988933 1.962855276848 3.114235463809 3.158953699765 3.574971754743 0.907925585483 7.022319083643 2.74508589605 3.694276563295 5.57047198221 5.070548867532 3.678500829355 7.014721067552 4.35071711213 1.472190951029 8.380134026305 6.289506092917 4.576210214877 9.348827682453 5.798320054989 3.063065847076 9.347903393285 4.707492134935 4.572731989986 0.833369390122 1.612565515857 0.029470158791 1.80206304627 0.032216324715 0.013694424852 0.833369390122 0.523402362642 1.526838792653 5.087761672827 3.157618577908 2.287064452895 6.266571864709 3.890509506138 2.831216612154 3.915625207867 2.431212911493 1.758688027575
4.681500587088 1.26715949805 0.918393436612 3.212282656012 1.999815871741 3.169488469891 3.219472240234 3.629890557335 0.913598056979 7.130975128644 2.785167204418 3.746151233935 5.661757197568 5.157633552597 3.74285488972 7.137429404276 4.418147936616 1.486964476808 8.510690312317 6.386755468976 4.642309621833 9.501054118782 5.897142985014 3.117493536759 9.508243703005 4.780677395273 4.6375142422 0.842203665873 1.63438036648 0.022235048714 1.832567472338 0.038037581671 0.018938704499 0.842203665873 0.527650065633 1.543754789573 5.171261238033 3.213849548625 2.328975991059 6.363038438437 3.949065388863 2.869170961001 3.980219346218 2.475727661784 1.792077365331