-1717.44990520633
-1716.90802329201
-1717.21817127532
-1717.39286840625
-1717.38811226696
-1717.23070469625
-1716.96848164975
-1716.18798091966
-1716.90398117907
-1717.31209512818
-1717.31812952157
-1716.97198212038
-1716.41683779253
-1715.28227986024
-1716.50865453296
-1717.23361399986
-1717.21355078471
-1716.61818329013
-1715.73798921647