-0.00381268690686003 -0.0193210589378792 -0.0140526141736693 -0.0189976143273977 -0.0117738466198558 0.00926110879931878 -0.0189983856579473 0.00518385551393296 -0.0140526141736693 0.0189983856579473 -0.00518385551393296 0.0140526141736693 0.00381268690686003 0.0193210589378792 0.0140526141736693 0.0189976143273977 0.0117738466198558 -0.00926110879931878 0.00914566632705631 0.013192580610823 0.00959843735969375 0.0158855526697921 0.00984449180502823 -0.000751790175713718 0.015884267118876 0.0023193909627611 0.00959843735969375 -0.015884267118876 -0.0023193909627611 -0.00959843735969375 -0.00914566632705631 -0.013192580610823 -0.00959843735969375 -0.0158855526697921 -0.00984449180502823 0.000751790175713718 0 0 0 -0.0563289844891381 -0.0349086209053278 -0.0253847454987658 0.0563289844891381 0.0349086209053278 0.0253847454987658
-0.69889052684827 -0.210936022519654 -0.188596490030858 0.66442027880532 -0.327458614661799 0.0295643286370702 0.643680485876473 -0.0384148324737984 -0.417430466624309 -0.667317396349759 0.128072495792423 0.27421880902396 0.672882546265397 0.197440309002823 0.249940665753742 -0.653318261094198 0.295848974517272 -0.0265245149409473 0.153626934012109 0.334261492999422 0.209675411291362 -0.313551524851828 -0.00540728426314473 -0.0883196619251859 -0.302679363644499 -0.148217592867498 0.0360095667098443 0.323336109984168 0.201660258439892 -0.104334026796768 -0.160380704304738 -0.371051903335683 -0.190865230287526 0.321306225087704 -0.0213478585121443 0.137109147401797 0.00134751447021737 0.00549984392910128 -0.00782643397699233 0.341767310577948 0.232900945471508 0.173723951482924 -0.326229885096226 -0.27285021151872 -0.0863447986079297
-0.406552134772583 -0.238379963475769 -0.223633923137976 0.394375910715999 -0.14440259196899 0.0771004019705197 0.44619132593884 -0.0847198622500259 -0.166761921941892 -0.401500948113188 0.0318472099538151 0.114292932633325 0.39866245169052 0.249548829834526 0.208384461061452 -0.337093304557326 0.167755395689826 0.121059301324932 -0.0590258132008554 0.178151903058212 0.0304588149644669 -0.125489309781686 0.107730452317006 0.0845925927093357 -0.12112075065872 -0.0786734020714146 0.0718121597222025 0.139663279961831 0.00196740712194301 -0.120816075091613 0.00608322693481073 -0.135752634075167 -0.072278300484367 0.0925902620683476 -0.10046554698015 -0.0969521363265498 0.25319619489358 0.153819766649518 0.109835927607334 0.00184065180161919 -0.0987421374220761 -0.117990948398473 -0.281821300031375 -0.00968456927106998 -0.0191035437228813
-0.217815262581691 -0.068719638438521 -0.0376103347105261 0.186573547109341 -0.0732509483074603 -0.0272721913537297 0.343133079871173 -0.164166137532178 0.030525406501919 -0.175776976295877 -0.000265080598892217 0.0921560029689015 0.147803645472526 0.134418232224294 0.0447579978038371 -0.00316014126186638 0.0762449963909713 -0.0178488460288037 -0.10308652818782 0.135081062276616 0.0747730405920791 -0.086371795177167 0.0455193010563297 -0.128473844788418 0.0776771001114657 -0.0901423160139802 0.0390709776613571 0.0247669097285058 -0.0148874509385607 -0.00321824816327244 -0.0377059796986812 -0.0513557022152563 -0.100944286141292 0.0268081074730309 -0.0199463509034523 0.0595410620080135 -0.00420066617332788 -0.00226411227337038 0.00795396062786579 -0.029868747093994 0.0111423840098856 0.0849006107088244 -0.148776036185436 0.082591761263575 -0.118310793466389
0.121984640874314 0.134053907094681 0.0913563902991102 -0.14433780020282 0.0671980603742687 -0.0932507781290208 -0.300635594798142 -0.132423057202564 0.166950383706187 0.139183512359956 -0.00533760740349411 0.000546873359693255 -0.0536159578358785 -0.0605203946958704 -0.189852730386035 0.00823729604976611 -0.16617031141032 0.00482750080000026 0.033486801592162 -0.0285623702530906 0.0427731071894357 0.124194245788844 0.0623093673506638 -0.153738519831623 -0.103973558319903 -0.191918353597965 0.0713493613924197 -0.0295884969942922 0.106007556979298 0.0540571589102714 0.130414255341123 0.0925442393455525 -0.066370165584324 -0.0508275978989376 0.0646835227824492 0.146604740688206 0.0185564132530048 -0.00381654355960822 0.0227527085532181 -0.149329851520076 -0.072430766823012 -0.0901220043095064 0.256251692310879 0.134382493908827 -0.00788428376821517
0.2683844647465 0.0179349779401799 0.10224937743128 -0.291953241021234 0.0852973317215215 0.0392069889482765 -0.326369753035893 0.178119507175127 -0.138082309445257 0.289165652414843 -0.0777442058692842 -0.0640286631458066 -0.307185476715483 -0.093619731241931 0.0423740721850897 0.39468084339329 0.0342995268812971 -0.294793280105001 0.0494335464855587 -0.149651496359275 -0.0294743400729458 0.190276962188336 0.0368433750340029 0.096838750735753 0.221428431986378 0.186868195379303 -0.0875285338914406 -0.209446069007936 -0.126869734355354 -0.00737803381746951 -0.0619635541542428 0.0894398909934433 0.0955560280317053 -0.191714979443044 -0.0956285331033712 0.0215342633949735 0.0471897459166621 0.0290002288951017 0.0231982805007256 -0.361268089533893 -0.286850375215013 -0.0261221375042196 0.289341258669977 0.17256078501407 0.226449279644154
0.470985489346766 -0.0521792261320864 0.0828709829225439 -0.46876894245729 0.147705172272356 0.0772114735696676 -0.434213590943696 0.27748642234241 0.0135689899190463 0.470031610567047 -0.151655413127235 -0.103147463301241 -0.468673040358952 -0.0852034865046489 -0.0131745828979982 0.408901350516597 0.0696370075722236 -0.181037964864773 0.31619590308617 -0.23886898704424 -0.0923426649619139 0.129741397991656 0.0927422141866263 0.0490165137683878 0.229172847814925 0.303599303880034 0.0196671292444834 -0.203243285837932 -0.209785454449777 -0.0852461667950622 -0.318770604460861 0.162327028391658 0.147258571884115 -0.141532470993787 -0.184462158284799 -0.00230833522488296 -0.123593379290676 -0.0760128258955304 -0.0544597934571823 -0.14396807575936 -0.3813820762768 -0.180132937019865 0.277734790779393 0.326052736179992 0.322255990104491
-0.337627579518041 0.124143852192934 -0.60225772136927 0.579026530765093 0.531747310504673 0.119079810024378 0.036353837245166 -0.319046740797631 -0.661081960186487 0.0836541405406096 0.486404387034027 0.483249902196192 0.327651190189025 -0.283883066590557 0.66671961517379 -0.882754389736733 -0.329474615608369 -0.0576703283149584 0.260564715634271 0.00900734104848792 0.260841109081224 -0.689501634287894 -0.353820893077139 -0.161266191775722 -0.0188585177182797 0.0213144341883267 0.240688555810835 0.0627009461596966 0.131920406794383 -0.336472383464867 -0.248870573171211 -0.142385562581686 -0.191593623436568 0.720541261156239 0.272959226236402 0.196230605590807 -0.280936069670573 -0.206047586606232 -0.173507721818842 1.22768492689875 0.529781188933646 0.488652815586222 -0.83962929870648 -0.472619681671266 -0.271612483096734
-0.339967025075093 0.241868177331415 -0.142563225718286 0.477162047278083 0.294286258823706 -0.171761429454462 0.218912865953825 -0.57772812433987 -0.0788731766837708 -0.0667807705469146 0.304026106784167 0.412730749585365 0.283595874515908 -0.196538623590296 0.140563165603075 -0.303097939022769 -0.186094293727833 -0.225049828916927 -0.193469499333287 0.107929712708996 0.343420786166188 -0.383528689196442 -0.155482241094171 -0.532677278037353 0.0999058181112965 -0.219500362722466 0.192274194091532 -0.0289516350704745 0.0850726174213936 -0.0260033525995753 0.11766339002506 0.00495682722215621 -0.339721999070491 0.333356465154513 0.2213806094923 0.438078728327932 -0.211878331341128 -0.150609488901926 -0.0648493588506213 0.511490627610083 0.376201563195248 0.555037122230623 -0.514413199062661 -0.149768995713003 -0.500604839563044
-0.208434597547178 0.258039636524939 -0.0312396585908837 0.264927104112839 0.0962972766899073 -0.145634149746578 0.0390450095328526 -0.381579022677141 0.0231946809581606 -0.0832731032490885 0.215930387828559 0.216862155132521 0.224685760897498 -0.149489259833668 -0.0390270118200277 -0.21796490070832 -0.226350035113434 -0.0165111017455484 -0.166422536500052 0.120134990216283 0.189594848872273 -0.127477799938652 -0.104461553447641 -0.33513926716491 -0.0555399133368586 -0.306634489592859 0.127538735052073 0.0136983163412023 0.217168373360728 0.0224305494936527 0.207287629019866 -0.0326257395885829 -0.215572490453527 0.149618072035458 0.200368022659065 0.280738609049866 -0.0970030441428259 -0.0564585680214773 -0.0199041848334054 0.188423711987739 0.262733697139852 0.233811115520081 -0.131569451394298 -0.113073716144531 -0.291142315503382
0.0559392054513878 -0.0284554124168742 0.14521094638501 -0.116866605567284 -0.209123652838188 -0.0130856227746066 -0.0515133107575657 0.276713292021489 0.0984253776763581 -0.0201800640599926 -0.0445687647089926 -0.0682581256596543 -0.0363983173068618 -0.0426342676905008 -0.158082139266817 0.256059373893836 0.142787940018414 0.0283055171800612 -0.0476080641847491 0.0607235117406083 -0.0208277246115052 0.161411459029238 -0.0734008435442733 0.0121402286309338 0.121306898431366 0.179951417230517 -0.0249458584160218 -0.113125909511723 -0.0259997530570104 0.0475936660144892 0.00984577735594429 -0.137544177831793 0.0160259348298262 -0.207512086209811 -0.0327905472160222 -0.0546014611681325 -0.0431374323190479 0.00362345381201554 -0.0119188567631877 -0.361402043939346 -0.0574121896910129 -0.0934279270452543 0.39318111969461 -0.0118694916080109 0.097445787878318
0.21119904623708 -0.0220523404141469 0.174331759956038 -0.321479003130823 -0.253963411680287 -0.0155816484332348 -0.0523139518680898 0.202200189824638 0.341133791086512 0.123684396295533 -0.175522437214496 -0.148270814675423 -0.201778272013986 0.0872354282825782 -0.283035374316505 0.286369064952039 0.0317893601625923 0.182981460739678 0.221505822151525 0.12672292444074 -0.0758544460226714 0.123659713717945 -0.0118880035412022 -0.0635288409496413 0.0664416422152571 0.0230018483207511 0.041908959863658 -0.0165522393748624 0.050160654083684 0.0605131956107404 -0.26638851839422 -0.114234568621736 0.0298214388202828 -0.138330163661874 0.00506635616020479 -0.0594117355858575 -0.302402455977179 -0.165705199088888 -0.133620676435968 -0.238817565007597 -0.0148319151389867 -0.219065075182287 0.505202483859252 0.232021114424555 0.167678519745045
0.238471751811176 -0.180089228288719 0.265831360627198 -0.345245240026265 -0.310742338990047 -0.0357629980441434 -0.115649188849772 0.390089369741478 0.274913520739001 0.0886883579279128 -0.291605370943348 -0.141717333215517 -0.228106868995326 0.158801533559446 -0.303529112800017 0.422410947983321 0.223713627294771 -0.0293771524236914 0.173041323946494 0.0921963692676659 -0.0192282421617394 0.260708440226687 0.044316539619261 -0.0421555285293589 0.155614395728343 0.214096420891703 -0.0546703666972335 -0.141186657797366 -0.117581628986798 0.133190788209637 -0.196029545427535 -0.115184333638524 0.0130758525876445 -0.287043979182973 -0.0868986139425697 -0.0152422629913941 -0.132839832809551 -0.0670769614779755 -0.0387405910759288 -0.666693647045286 -0.275925249309943 -0.258370023110368 0.773859485399957 0.321889865203597 0.251781574665544
-0.0832957289452112 0.272519824933291 -0.0321693690133805 -0.0303783394771214 0.191927866674744 -0.19045179711292 0.03480474839131 -0.448238951437945 -0.0265723374350249 0.0463495098379233 0.251816541650461 -0.284067671702103 0.0513844985557761 -0.0968747461614028 0.0978455942132137 -0.449314443334324 -0.421041322037347 0.491614724896831 -0.106696612270308 -0.00610148175781882 -0.107087162638608 -0.317350327808794 -0.0912854278885435 -0.192863490631455 -0.472065352116259 -0.816840080507245 -0.0342344780049443 0.487401203214343 0.730182893026712 -0.101333293848493 0.201420631749138 0.0732918288265911 0.131122593895874 0.493035001548898 0.27046294346759 0.334579538296056 -0.194221032398818 -0.15540767914104 -0.162951806136864 1.77376201635459 0.898952588389312 0.441094373666833 -1.43483603041133 -0.653365055147543 -0.364525675555197
-0.0907485818259956 0.312873525298696 0.0522496743222866 -0.0137445961741806 0.144801884083519 -0.262937328404957 0.365431731840838 -0.683804329738086 0.599317666424234 0.0497762743597812 0.153512777090763 -0.175008216848071 0.00748936252680058 -0.0379831444761844 -0.225559678410238 -0.0233959982316161 -0.376594941775564 0.578502540211706 -0.242301407990128 0.12756084652783 -0.0954084467865412 -0.286433342497843 0.0273920046991067 -0.53195274154106 -0.0503192910667262 -0.687941746806343 0.213737237965755 0.243060140140789 0.399325795963209 -0.0346990761060096 0.0388143816985108 0.127305021895533 -0.0292190296610157 0.252572702699289 0.160566337857018 0.300111347134571 -0.301155471588598 -0.201881887417821 -0.143777814223783 1.12371573945196 0.631216298414691 0.280096604922384 -1.07276112912251 -0.0963481845061833 -0.525452481889079
-0.0208143548819781 -0.109557734389098 0.0694441749348142 -0.0199540642089487 0.0642083831638723 -0.108034613663747 -0.0548310605617414 -0.000487480907371139 -0.0924092564993659 0.021561517074394 -0.0159796549968479 -0.010968834636217 0.0176531851793789 0.0265643670193453 0.0202960207526215 -0.0807074007308097 0.157893677502522 -0.185657463526555 0.0216494487570527 -0.0938968960194342 0.100233119374526 -0.0927892653501542 0.0337320847069469 -0.159404971159446 -0.131928377210063 -0.0140829531752884 -0.0865962523671117 0.0935932488930601 0.0120936916877723 0.0447425711928444 0.0638653981794666 0.0640582308168761 -0.0266083328606747 0.133422187374528 -0.0237963187868782 0.259569699225238 -0.0186425451643811 -0.0432425903839819 -0.00301050313523664 0.415657177690692 0.118601585083603 0.267745288831033 -0.347735352150679 -0.176108134211855 -0.0893409035729064
0.0792783823325139 -0.364345955537131 -0.0645343988761859 -0.0679349381593561 0.014369116809204 0.127760364030003 -0.198475948820803 0.259732707081395 -0.213729010439892 0.0508967605382218 -0.221722566035973 0.12668615768454 -0.037712921673628 0.223459345323574 0.119261844034093 0.0460926567648939 0.306021024695713 -0.396728211782212 0.149721944549476 -0.13811779065054 0.0782951929919088 0.141182029814068 0.189906980634693 0.15735965965199 0.0317883317218594 0.35296060240411 -0.0791482845798083 -0.136354014793702 -0.373713250842117 0.0365852364100574 -0.0390848616112505 0.0961707784797666 -0.0263933887475089 -0.127720511951605 -0.204809858184246 -0.054342036993271 0.239864003453273 0.118714970674399 0.119854483006398 -0.576625121653887 -0.551714230222783 -0.168029475145131 0.445083952379743 0.293087611149569 0.237101868755019
0.130378517025657 -0.324546584726733 -0.261932284698779 -0.121792579567454 -0.0588039271127429 0.365284150595674 -0.12229163043307 0.316252467326477 -0.311220563930822 0.107354557229149 -0.237964730529881 0.0712483170904172 -0.140655211048666 0.268009855209559 0.318043753972919 0.187965541641254 0.150113523358508 -0.241052880940448 0.172678027257615 -0.0581781209268033 -0.10005417068701 0.239010911865373 0.155318461907465 0.507728591409316 0.220556571355104 0.370677036688559 -0.0289405793325964 -0.214556391009471 -0.368329363605644 -0.0956092498396303 -0.208667539373169 0.0252893576207939 0.108037698985945 -0.253363573622851 -0.198790651685056 -0.439274547790054 0.271173338903807 0.162880072395748 0.10719694868684 -0.938886427825531 -0.670969389392112 -0.485964214400367 0.671095373381886 0.469041993471862 0.486509030878595
0.214999134744963 -0.326394949833848 -0.237588321221658 -0.178838644357573 -0.129969711834349 0.375881461017149 -0.267054176658557 0.428896809465042 -0.210194002530902 0.161347952813984 -0.283776365864523 0.199500790011089 -0.150860428440741 0.231308662106872 0.195924387362601 0.0973136332441468 0.178273259064688 -0.29476037000155 0.402692910922561 0.00185530708206231 -0.00562891324107402 0.191066804671165 0.0778131113983851 0.338616425282677 0.126358856421311 0.425971924020816 0.0399086426382638 -0.175673360892042 -0.338283210485234 -0.0405817570979144 -0.334849246878246 -0.0598184838956999 0.00782900507882446 -0.18868545015425 -0.123618833198814 -0.340135432245097 0.0334142965204961 0.0258776257199844 0.0108117403142741 -0.960150725528131 -0.627609556764585 -0.50788979949419 1.02891792935055 0.519474413019202 0.468306658347874