-0.257592541128451 -0.0370879313143057 -0.0269730409558587 -0.0370879313143057 -0.220504609814145 -0.0168581505974117 -0.0269730409558587 -0.0168581505974117 -0.209715393431801
18.6037332863837 -4.18953946809508 -2.82890004451191 -4.18953946809508 5.08382036984749 2.096691541143 -2.82890004451191 2.096691541143 3.47206481912467
11.622326040674 -2.90851479492357 -1.89294642861005 -2.90851479492357 3.16273280703029 1.34735546416563 -1.89294642861005 1.34735546416563 2.16150494396382
5.48897339010007 -1.3679333297628 -1.02843654603107 -1.3679333297628 1.4189904632537 0.670373531939015 -1.02843654603107 0.670373531939015 1.13850776888159
-5.7394827544228 1.28062037568822 0.522394393080527 1.28062037568822 -1.69675344209226 -0.792503829922689 0.522394393080527 -0.792503829922689 -1.10169001270395
-11.2211954621881 2.22765535845847 1.57684831910902 2.22765535845847 -3.18993000657582 -1.09187861955096 1.57684831910902 -1.09187861955096 -2.43460363542505
-16.4214380558136 3.50264536981459 2.47741179482136 3.50264536981459 -4.36432303608998 -1.35730163208704 2.47741179482136 -1.35730163208704 -3.25624945538251
24.2935970006207 -0.506940712480698 -2.26875747434339 -0.506940712480698 24.7664576652035 -1.31390756091936 -2.26875747434339 -1.31390756091936 7.42032185747558
15.3501833909186 -0.272838939627592 -2.07055139865189 -0.272838939627592 15.6425558343071 -0.981716092239697 -2.07055139865189 -0.981716092239697 5.26207386796772
7.30206547115598 -0.224297751770484 -1.04846158385738 -0.224297751770484 7.60199851131418 -0.577045088130462 -1.04846158385738 -0.577045088130462 2.49726857349115
-7.0820435447978 0.0648194124265521 0.670497578003689 0.0648194124265521 -7.41241345329442 0.310854386475723 0.670497578003689 0.310854386475723 -2.283316076445
-13.4190517724004 0.552976968460779 1.42132361424685 0.552976968460779 -13.7848229963302 0.713541895500823 1.42132361424685 0.713541895500823 -4.13220679947449
-19.4817386725877 0.616308389985697 1.80654932167098 0.616308389985697 -20.247477685477 1.11589733820088 1.80654932167098 1.11589733820088 -5.81292557454544
29.7298814511616 0.826167290778638 0.94757745947249 0.826167290778638 29.5113431475126 0.492578398700769 0.94757745947249 0.492578398700769 28.0208887908805
18.5717390857312 0.561598669630834 0.412976028210093 0.561598669630834 18.6405684237662 0.167505026191409 0.412976028210093 0.167505026191409 18.4584447771071
8.86982386722389 0.456506765466489 -0.0788628260567109 0.456506765466489 8.38702949307183 0.253899830231362 -0.0788628260567109 0.253899830231362 8.53385540499855
-8.56058761148576 -0.115501678724624 -0.50664846802519 -0.115501678724624 -8.70372466119358 -0.0106289888396893 -0.50664846802519 -0.0106289888396893 -8.17865261251293
-16.1616648688136 -0.644323808875452 -0.206094336095266 -0.644323808875452 -15.680282069342 -0.186749741371522 -0.206094336095266 -0.186749741371522 -15.7435240136311
-22.7391022781288 -0.568282405028417 -0.389523241908215 -0.568282405028417 -22.2629315816078 -0.244330209854251 -0.389523241908215 -0.244330209854251 -22.0513868951205