
     Program PWSCF v.6.7MaX starts on 13Mar2023 at 15:38: 6 

     This program is part of the open-source Quantum ESPRESSO suite
     for quantum simulation of materials; please cite
         "P. Giannozzi et al., J. Phys.:Condens. Matter 21 395502 (2009);
         "P. Giannozzi et al., J. Phys.:Condens. Matter 29 465901 (2017);
          URL http://www.quantum-espresso.org", 
     in publications or presentations arising from this work. More details at
     http://www.quantum-espresso.org/quote

     Parallel version (MPI), running on    16 processors

     MPI processes distributed on     1 nodes
     R & G space division:  proc/nbgrp/npool/nimage =      16
     Reading input from path2_cod-2.in

     Current dimensions of program PWSCF are:
     Max number of different atomic species (ntypx) = 10
     Max number of k-points (npk) =  40000
     Max angular momentum in pseudopotentials (lmaxx) =  3
     Message from routine read_pp_mesh:
     mesh size missing, using the one in header
     file Fe.pbe-spn-kjpaw_psl.0.2.1.UPF: wavefunction(s)  3D renormalized
     file O.pbe-n-kjpaw_psl.0.1.UPF: wavefunction(s)  2P renormalized

     Subspace diagonalization in iterative solution of the eigenvalue problem:
     a serial algorithm will be used


     Parallelization info
     --------------------
     sticks:   dense  smooth     PW     G-vecs:    dense   smooth      PW
     Min        1241     460    123                80927    18242    2559
     Max        1242     462    124                80930    18243    2562
     Sum       19863    7371   1983              1294859   291873   40977



     bravais-lattice index     =            0
     lattice parameter (alat)  =      19.6651  a.u.
     unit-cell volume          =    2160.3578 (a.u.)^3
     number of atoms/cell      =           25
     number of atomic types    =            4
     number of electrons       =       189.00
     number of Kohn-Sham states=          114
     kinetic-energy cutoff     =     100.0000  Ry
     charge density cutoff     =    1080.0000  Ry
     scf convergence threshold =      2.0E-10
     mixing beta               =       0.4000
     number of iterations used =            8  plain     mixing
     Exchange-correlation= PBE
                           (   1   4   3   4   0   0   0)

     celldm(1)=  19.665057  celldm(2)=   0.000000  celldm(3)=   0.000000
     celldm(4)=   0.000000  celldm(5)=   0.000000  celldm(6)=   0.000000

     crystal axes: (cart. coord. in units of alat)
               a(1) = (   1.000000   0.000000   0.000000 )  
               a(2) = (   0.000000   0.597590   0.000000 )  
               a(3) = (   0.000000   0.000000   0.475375 )  

     reciprocal axes: (cart. coord. in units 2 pi/alat)
               b(1) = (  1.000000  0.000000  0.000000 )  
               b(2) = (  0.000000  1.673388  0.000000 )  
               b(3) = (  0.000000  0.000000  2.103600 )  


     PseudoPot. # 1 for Fe read from file:
     /opt/QEpot/SSSP_precision_pseudos/Fe.pbe-spn-kjpaw_psl.0.2.1.UPF
     MD5 check sum: e86618425769142926afa95317d90200
     Pseudo is Projector augmented-wave + core cor, Zval = 16.0
     Generated using "atomic" code by A. Dal Corso  v.5.0.99 svn rev. 10869
     Shape of augmentation charge: PSQ
     Using radial grid of 1191 points,  6 beta functions with: 
                l(1) =   0
                l(2) =   0
                l(3) =   1
                l(4) =   1
                l(5) =   2
                l(6) =   2
     Q(r) pseudized with 0 coefficients 


     PseudoPot. # 2 for Na read from file:
     /opt/QEpot/SSSP_precision_pseudos/Na_ONCV_PBE-1.0.oncvpsp.upf
     MD5 check sum: 24a298df0a6742ae313db96548fdb2a4
     Pseudo is Norm-conserving, Zval =  9.0
     Generated using ONCVPSP code by D. R. Hamann
     Using radial grid of 1992 points,  4 beta functions with: 
                l(1) =   0
                l(2) =   0
                l(3) =   1
                l(4) =   1

     PseudoPot. # 3 for O  read from file:
     /opt/QEpot/SSSP_precision_pseudos/O.pbe-n-kjpaw_psl.0.1.UPF
     MD5 check sum: 0234752ac141de4415c5fc33072bef88
     Pseudo is Projector augmented-wave + core cor, Zval =  6.0
     Generated using "atomic" code by A. Dal Corso  v.5.0.99 svn rev. 10869
     Shape of augmentation charge: BESSEL
     Using radial grid of 1095 points,  4 beta functions with: 
                l(1) =   0
                l(2) =   0
                l(3) =   1
                l(4) =   1
     Q(r) pseudized with 0 coefficients 


     PseudoPot. # 4 for P  read from file:
     /opt/QEpot/SSSP_precision_pseudos/P.pbe-n-rrkjus_psl.1.0.0.UPF
     MD5 check sum: 8b930f418f0a4573dca56cd030ffe088
     Pseudo is Ultrasoft + core correction, Zval =  5.0
     Generated using "atomic" code by A. Dal Corso  v.5.1
     Using radial grid of 1147 points,  6 beta functions with: 
                l(1) =   0
                l(2) =   0
                l(3) =   1
                l(4) =   1
                l(5) =   2
                l(6) =   2
     Q(r) pseudized with 0 coefficients 


     atomic species   valence    mass     pseudopotential
        Fe            16.00    55.84500     Fe( 1.00)
        Na             9.00    22.98977     Na( 1.00)
        O              6.00    15.99940     O ( 1.00)
        P              5.00    30.97376     P ( 1.00)

     Starting magnetic structure 
     atomic species   magnetization
        Fe           0.312
        Na           0.000
        O            0.000
        P            0.000

     No symmetry found


                                    s                        frac. trans.

      isym =  1     identity                                     

 cryst.   s( 1) = (     1          0          0      )
                  (     0          1          0      )
                  (     0          0          1      )

 cart.    s( 1) = (  1.0000000  0.0000000  0.0000000 )
                  (  0.0000000  1.0000000  0.0000000 )
                  (  0.0000000  0.0000000  1.0000000 )


   Cartesian axes

     site n.     atom                  positions (alat units)
         1           Na  tau(   1) = (   0.0416219   0.0103890  -0.0072564  )
         2           Fe  tau(   2) = (   0.3034696   0.3840754   0.4812822  )
         3           Fe  tau(   3) = (   0.2228046   0.1446280   0.2122939  )
         4           Fe  tau(   4) = (   0.7218490   0.1552960   0.0219183  )
         5           Fe  tau(   5) = (   0.7815441   0.4545446   0.2669895  )
         6           P   tau(   6) = (   0.1136847   0.4449165   0.2257371  )
         7           P   tau(   7) = (   0.4125353   0.1580890   0.4069345  )
         8           P   tau(   8) = (   0.8971934   0.1538630   0.2817328  )
         9           P   tau(   9) = (   0.6073801   0.4450249   0.0499088  )
        10           O   tau(  10) = (   0.1544697   0.4404557   0.3688059  )
        11           O   tau(  11) = (   0.3471600   0.1814429   0.0658454  )
        12           O   tau(  12) = (   0.8730959   0.1461882   0.1355040  )
        13           O   tau(  13) = (   0.6381667   0.4500630   0.3803003  )
        14           O   tau(  14) = (   0.4597415   0.4579235   0.0696879  )
        15           O   tau(  15) = (   0.0442832   0.1585302   0.3074880  )
        16           O   tau(  16) = (   0.5562112   0.1286027   0.4174289  )
        17           O   tau(  17) = (   0.9659287   0.4446185   0.2094771  )
        18           O   tau(  18) = (   0.1694334   0.5660378   0.1549456  )
        19           O   tau(  19) = (   0.3373552   0.0542741   0.3308470  )
        20           O   tau(  20) = (   0.8219795   0.2662103   0.3496610  )
        21           O   tau(  21) = (   0.6641008   0.3194124   0.1123509  )
        22           O   tau(  22) = (   0.8377213   0.0339883   0.3559203  )
        23           O   tau(  23) = (   0.6832510   0.5541268   0.1233016  )
        24           O   tau(  24) = (   0.1756232   0.3298112   0.1482443  )
        25           O   tau(  25) = (   0.3819541   0.2886025   0.3362039  )

   Crystallographic axes

     site n.     atom                  positions (cryst. coord.)
         1           Na  tau(   1) = (  0.0416219  0.0173848 -0.0152645  )
         2           Fe  tau(   2) = (  0.3034696  0.6427072  1.0124254  )
         3           Fe  tau(   3) = (  0.2228046  0.2420187  0.4465815  )
         4           Fe  tau(   4) = (  0.7218490  0.2598704  0.0461074  )
         5           Fe  tau(   5) = (  0.7815441  0.7606296  0.5616391  )
         6           P   tau(   6) = (  0.1136847  0.7445180  0.4748605  )
         7           P   tau(   7) = (  0.4125353  0.2645443  0.8560276  )
         8           P   tau(   8) = (  0.8971934  0.2574725  0.5926531  )
         9           P   tau(   9) = (  0.6073801  0.7446994  0.1049882  )
        10           O   tau(  10) = (  0.1544697  0.7370535  0.7758201  )
        11           O   tau(  11) = (  0.3471600  0.3036245  0.1385123  )
        12           O   tau(  12) = (  0.8730959  0.2446296  0.2850463  )
        13           O   tau(  13) = (  0.6381667  0.7531303  0.7999999  )
        14           O   tau(  14) = (  0.4597415  0.7662839  0.1465954  )
        15           O   tau(  15) = (  0.0442832  0.2652825  0.6468318  )
        16           O   tau(  16) = (  0.5562112  0.2152023  0.8781035  )
        17           O   tau(  17) = (  0.9659287  0.7440195  0.4406560  )
        18           O   tau(  18) = (  0.1694334  0.9472010  0.3259435  )
        19           O   tau(  19) = (  0.3373552  0.0908216  0.6959699  )
        20           O   tau(  20) = (  0.8219795  0.4454732  0.7355469  )
        21           O   tau(  21) = (  0.6641008  0.5345011  0.2363413  )
        22           O   tau(  22) = (  0.8377213  0.0568757  0.7487140  )
        23           O   tau(  23) = (  0.6832510  0.9272692  0.2593772  )
        24           O   tau(  24) = (  0.1756232  0.5519022  0.3118467  )
        25           O   tau(  25) = (  0.3819541  0.4829441  0.7072386  )

     number of k points=   158  Marzari-Vanderbilt smearing, width (Ry)=  0.0073
                       cart. coord. in units 2pi/alat
        k(    1) = (   0.0000000   0.0000000   0.0000000), wk =   0.0031746
        k(    2) = (   0.0000000   0.0000000   0.2337334), wk =   0.0063492
        k(    3) = (   0.0000000   0.0000000   0.4674667), wk =   0.0063492
        k(    4) = (   0.0000000   0.0000000   0.7012001), wk =   0.0063492
        k(    5) = (   0.0000000   0.0000000   0.9349334), wk =   0.0063492
        k(    6) = (   0.0000000   0.2390555   0.0000000), wk =   0.0063492
        k(    7) = (   0.0000000   0.2390555   0.2337334), wk =   0.0063492
        k(    8) = (   0.0000000   0.2390555   0.4674667), wk =   0.0063492
        k(    9) = (   0.0000000   0.2390555   0.7012001), wk =   0.0063492
        k(   10) = (   0.0000000   0.2390555   0.9349334), wk =   0.0063492
        k(   11) = (   0.0000000   0.4781110   0.0000000), wk =   0.0063492
        k(   12) = (   0.0000000   0.4781110   0.2337334), wk =   0.0063492
        k(   13) = (   0.0000000   0.4781110   0.4674667), wk =   0.0063492
        k(   14) = (   0.0000000   0.4781110   0.7012001), wk =   0.0063492
        k(   15) = (   0.0000000   0.4781110   0.9349334), wk =   0.0063492
        k(   16) = (   0.0000000   0.7171664   0.0000000), wk =   0.0063492
        k(   17) = (   0.0000000   0.7171664   0.2337334), wk =   0.0063492
        k(   18) = (   0.0000000   0.7171664   0.4674667), wk =   0.0063492
        k(   19) = (   0.0000000   0.7171664   0.7012001), wk =   0.0063492
        k(   20) = (   0.0000000   0.7171664   0.9349334), wk =   0.0063492
        k(   21) = (   0.2000000   0.0000000   0.0000000), wk =   0.0063492
        k(   22) = (   0.2000000   0.0000000   0.2337334), wk =   0.0063492
        k(   23) = (   0.2000000   0.0000000   0.4674667), wk =   0.0063492
        k(   24) = (   0.2000000   0.0000000   0.7012001), wk =   0.0063492
        k(   25) = (   0.2000000   0.0000000   0.9349334), wk =   0.0063492
        k(   26) = (   0.2000000   0.2390555   0.0000000), wk =   0.0063492
        k(   27) = (   0.2000000   0.2390555   0.2337334), wk =   0.0063492
        k(   28) = (   0.2000000   0.2390555   0.4674667), wk =   0.0063492
        k(   29) = (   0.2000000   0.2390555   0.7012001), wk =   0.0063492
        k(   30) = (   0.2000000   0.2390555   0.9349334), wk =   0.0063492
        k(   31) = (   0.2000000   0.4781110   0.0000000), wk =   0.0063492
        k(   32) = (   0.2000000   0.4781110   0.2337334), wk =   0.0063492
        k(   33) = (   0.2000000   0.4781110   0.4674667), wk =   0.0063492
        k(   34) = (   0.2000000   0.4781110   0.7012001), wk =   0.0063492
        k(   35) = (   0.2000000   0.4781110   0.9349334), wk =   0.0063492
        k(   36) = (   0.2000000   0.7171664   0.0000000), wk =   0.0063492
        k(   37) = (   0.2000000   0.7171664   0.2337334), wk =   0.0063492
        k(   38) = (   0.2000000   0.7171664   0.4674667), wk =   0.0063492
        k(   39) = (   0.2000000   0.7171664   0.7012001), wk =   0.0063492
        k(   40) = (   0.2000000   0.7171664   0.9349334), wk =   0.0063492
        k(   41) = (   0.4000000   0.0000000   0.0000000), wk =   0.0063492
        k(   42) = (   0.4000000   0.0000000   0.2337334), wk =   0.0063492
        k(   43) = (   0.4000000   0.0000000   0.4674667), wk =   0.0063492
        k(   44) = (   0.4000000   0.0000000   0.7012001), wk =   0.0063492
        k(   45) = (   0.4000000   0.0000000   0.9349334), wk =   0.0063492
        k(   46) = (   0.4000000   0.2390555   0.0000000), wk =   0.0063492
        k(   47) = (   0.4000000   0.2390555   0.2337334), wk =   0.0063492
        k(   48) = (   0.4000000   0.2390555   0.4674667), wk =   0.0063492
        k(   49) = (   0.4000000   0.2390555   0.7012001), wk =   0.0063492
        k(   50) = (   0.4000000   0.2390555   0.9349334), wk =   0.0063492
        k(   51) = (   0.4000000   0.4781110   0.0000000), wk =   0.0063492
        k(   52) = (   0.4000000   0.4781110   0.2337334), wk =   0.0063492
        k(   53) = (   0.4000000   0.4781110   0.4674667), wk =   0.0063492
        k(   54) = (   0.4000000   0.4781110   0.7012001), wk =   0.0063492
        k(   55) = (   0.4000000   0.4781110   0.9349334), wk =   0.0063492
        k(   56) = (   0.4000000   0.7171664   0.0000000), wk =   0.0063492
        k(   57) = (   0.4000000   0.7171664   0.2337334), wk =   0.0063492
        k(   58) = (   0.4000000   0.7171664   0.4674667), wk =   0.0063492
        k(   59) = (   0.4000000   0.7171664   0.7012001), wk =   0.0063492
        k(   60) = (   0.4000000   0.7171664   0.9349334), wk =   0.0063492
        k(   61) = (   0.0000000  -0.2390555   0.2337334), wk =   0.0063492
        k(   62) = (   0.0000000  -0.2390555   0.4674667), wk =   0.0063492
        k(   63) = (   0.0000000  -0.2390555   0.7012001), wk =   0.0063492
        k(   64) = (   0.0000000  -0.2390555   0.9349334), wk =   0.0063492
        k(   65) = (   0.0000000  -0.4781110   0.2337334), wk =   0.0063492
        k(   66) = (   0.0000000  -0.4781110   0.4674667), wk =   0.0063492
        k(   67) = (   0.0000000  -0.4781110   0.7012001), wk =   0.0063492
        k(   68) = (   0.0000000  -0.4781110   0.9349334), wk =   0.0063492
        k(   69) = (   0.0000000  -0.7171664   0.2337334), wk =   0.0063492
        k(   70) = (   0.0000000  -0.7171664   0.4674667), wk =   0.0063492
        k(   71) = (   0.0000000  -0.7171664   0.7012001), wk =   0.0063492
        k(   72) = (   0.0000000  -0.7171664   0.9349334), wk =   0.0063492
        k(   73) = (  -0.2000000   0.0000000   0.2337334), wk =   0.0063492
        k(   74) = (  -0.2000000   0.0000000   0.4674667), wk =   0.0063492
        k(   75) = (  -0.2000000   0.0000000   0.7012001), wk =   0.0063492
        k(   76) = (  -0.2000000   0.0000000   0.9349334), wk =   0.0063492
        k(   77) = (  -0.2000000   0.2390555   0.0000000), wk =   0.0063492
        k(   78) = (  -0.2000000  -0.2390555   0.2337334), wk =   0.0063492
        k(   79) = (  -0.2000000   0.2390555  -0.2337334), wk =   0.0063492
        k(   80) = (   0.2000000  -0.2390555  -0.2337334), wk =   0.0063492
        k(   81) = (  -0.2000000  -0.2390555   0.4674667), wk =   0.0063492
        k(   82) = (  -0.2000000   0.2390555  -0.4674667), wk =   0.0063492
        k(   83) = (   0.2000000  -0.2390555  -0.4674667), wk =   0.0063492
        k(   84) = (  -0.2000000  -0.2390555   0.7012001), wk =   0.0063492
        k(   85) = (  -0.2000000   0.2390555  -0.7012001), wk =   0.0063492
        k(   86) = (   0.2000000  -0.2390555  -0.7012001), wk =   0.0063492
        k(   87) = (  -0.2000000  -0.2390555   0.9349334), wk =   0.0063492
        k(   88) = (  -0.2000000   0.2390555  -0.9349334), wk =   0.0063492
        k(   89) = (   0.2000000  -0.2390555  -0.9349334), wk =   0.0063492
        k(   90) = (  -0.2000000   0.4781110   0.0000000), wk =   0.0063492
        k(   91) = (  -0.2000000  -0.4781110   0.2337334), wk =   0.0063492
        k(   92) = (  -0.2000000   0.4781110  -0.2337334), wk =   0.0063492
        k(   93) = (   0.2000000  -0.4781110  -0.2337334), wk =   0.0063492
        k(   94) = (  -0.2000000  -0.4781110   0.4674667), wk =   0.0063492
        k(   95) = (  -0.2000000   0.4781110  -0.4674667), wk =   0.0063492
        k(   96) = (   0.2000000  -0.4781110  -0.4674667), wk =   0.0063492
        k(   97) = (  -0.2000000  -0.4781110   0.7012001), wk =   0.0063492
        k(   98) = (  -0.2000000   0.4781110  -0.7012001), wk =   0.0063492
        k(   99) = (   0.2000000  -0.4781110  -0.7012001), wk =   0.0063492
        k(  100) = (  -0.2000000  -0.4781110   0.9349334), wk =   0.0063492
        k(  101) = (  -0.2000000   0.4781110  -0.9349334), wk =   0.0063492
        k(  102) = (   0.2000000  -0.4781110  -0.9349334), wk =   0.0063492
        k(  103) = (  -0.2000000   0.7171664   0.0000000), wk =   0.0063492
        k(  104) = (  -0.2000000  -0.7171664   0.2337334), wk =   0.0063492
        k(  105) = (  -0.2000000   0.7171664  -0.2337334), wk =   0.0063492
        k(  106) = (   0.2000000  -0.7171664  -0.2337334), wk =   0.0063492
        k(  107) = (  -0.2000000  -0.7171664   0.4674667), wk =   0.0063492
        k(  108) = (  -0.2000000   0.7171664  -0.4674667), wk =   0.0063492
        k(  109) = (   0.2000000  -0.7171664  -0.4674667), wk =   0.0063492
        k(  110) = (  -0.2000000  -0.7171664   0.7012001), wk =   0.0063492
        k(  111) = (  -0.2000000   0.7171664  -0.7012001), wk =   0.0063492
        k(  112) = (   0.2000000  -0.7171664  -0.7012001), wk =   0.0063492
        k(  113) = (  -0.2000000  -0.7171664   0.9349334), wk =   0.0063492
        k(  114) = (  -0.2000000   0.7171664  -0.9349334), wk =   0.0063492
        k(  115) = (   0.2000000  -0.7171664  -0.9349334), wk =   0.0063492
        k(  116) = (  -0.4000000   0.0000000   0.2337334), wk =   0.0063492
        k(  117) = (  -0.4000000   0.0000000   0.4674667), wk =   0.0063492
        k(  118) = (  -0.4000000   0.0000000   0.7012001), wk =   0.0063492
        k(  119) = (  -0.4000000   0.0000000   0.9349334), wk =   0.0063492
        k(  120) = (  -0.4000000   0.2390555   0.0000000), wk =   0.0063492
        k(  121) = (  -0.4000000  -0.2390555   0.2337334), wk =   0.0063492
        k(  122) = (  -0.4000000   0.2390555  -0.2337334), wk =   0.0063492
        k(  123) = (   0.4000000  -0.2390555  -0.2337334), wk =   0.0063492
        k(  124) = (  -0.4000000  -0.2390555   0.4674667), wk =   0.0063492
        k(  125) = (  -0.4000000   0.2390555  -0.4674667), wk =   0.0063492
        k(  126) = (   0.4000000  -0.2390555  -0.4674667), wk =   0.0063492
        k(  127) = (  -0.4000000  -0.2390555   0.7012001), wk =   0.0063492
        k(  128) = (  -0.4000000   0.2390555  -0.7012001), wk =   0.0063492
        k(  129) = (   0.4000000  -0.2390555  -0.7012001), wk =   0.0063492
        k(  130) = (  -0.4000000  -0.2390555   0.9349334), wk =   0.0063492
        k(  131) = (  -0.4000000   0.2390555  -0.9349334), wk =   0.0063492
        k(  132) = (   0.4000000  -0.2390555  -0.9349334), wk =   0.0063492
        k(  133) = (  -0.4000000   0.4781110   0.0000000), wk =   0.0063492
        k(  134) = (  -0.4000000  -0.4781110   0.2337334), wk =   0.0063492
        k(  135) = (  -0.4000000   0.4781110  -0.2337334), wk =   0.0063492
        k(  136) = (   0.4000000  -0.4781110  -0.2337334), wk =   0.0063492
        k(  137) = (  -0.4000000  -0.4781110   0.4674667), wk =   0.0063492
        k(  138) = (  -0.4000000   0.4781110  -0.4674667), wk =   0.0063492
        k(  139) = (   0.4000000  -0.4781110  -0.4674667), wk =   0.0063492
        k(  140) = (  -0.4000000  -0.4781110   0.7012001), wk =   0.0063492
        k(  141) = (  -0.4000000   0.4781110  -0.7012001), wk =   0.0063492
        k(  142) = (   0.4000000  -0.4781110  -0.7012001), wk =   0.0063492
        k(  143) = (  -0.4000000  -0.4781110   0.9349334), wk =   0.0063492
        k(  144) = (  -0.4000000   0.4781110  -0.9349334), wk =   0.0063492
        k(  145) = (   0.4000000  -0.4781110  -0.9349334), wk =   0.0063492
        k(  146) = (  -0.4000000   0.7171664   0.0000000), wk =   0.0063492
        k(  147) = (  -0.4000000  -0.7171664   0.2337334), wk =   0.0063492
        k(  148) = (  -0.4000000   0.7171664  -0.2337334), wk =   0.0063492
        k(  149) = (   0.4000000  -0.7171664  -0.2337334), wk =   0.0063492
        k(  150) = (  -0.4000000  -0.7171664   0.4674667), wk =   0.0063492
        k(  151) = (  -0.4000000   0.7171664  -0.4674667), wk =   0.0063492
        k(  152) = (   0.4000000  -0.7171664  -0.4674667), wk =   0.0063492
        k(  153) = (  -0.4000000  -0.7171664   0.7012001), wk =   0.0063492
        k(  154) = (  -0.4000000   0.7171664  -0.7012001), wk =   0.0063492
        k(  155) = (   0.4000000  -0.7171664  -0.7012001), wk =   0.0063492
        k(  156) = (  -0.4000000  -0.7171664   0.9349334), wk =   0.0063492
        k(  157) = (  -0.4000000   0.7171664  -0.9349334), wk =   0.0063492
        k(  158) = (   0.4000000  -0.7171664  -0.9349334), wk =   0.0063492

                       cryst. coord.
        k(    1) = (   0.0000000   0.0000000   0.0000000), wk =   0.0031746
        k(    2) = (   0.0000000   0.0000000   0.1111111), wk =   0.0063492
        k(    3) = (   0.0000000   0.0000000   0.2222222), wk =   0.0063492
        k(    4) = (   0.0000000   0.0000000   0.3333333), wk =   0.0063492
        k(    5) = (   0.0000000   0.0000000   0.4444444), wk =   0.0063492
        k(    6) = (   0.0000000   0.1428571   0.0000000), wk =   0.0063492
        k(    7) = (   0.0000000   0.1428571   0.1111111), wk =   0.0063492
        k(    8) = (   0.0000000   0.1428571   0.2222222), wk =   0.0063492
        k(    9) = (   0.0000000   0.1428571   0.3333333), wk =   0.0063492
        k(   10) = (   0.0000000   0.1428571   0.4444444), wk =   0.0063492
        k(   11) = (   0.0000000   0.2857143   0.0000000), wk =   0.0063492
        k(   12) = (   0.0000000   0.2857143   0.1111111), wk =   0.0063492
        k(   13) = (   0.0000000   0.2857143   0.2222222), wk =   0.0063492
        k(   14) = (   0.0000000   0.2857143   0.3333333), wk =   0.0063492
        k(   15) = (   0.0000000   0.2857143   0.4444444), wk =   0.0063492
        k(   16) = (   0.0000000   0.4285714   0.0000000), wk =   0.0063492
        k(   17) = (   0.0000000   0.4285714   0.1111111), wk =   0.0063492
        k(   18) = (   0.0000000   0.4285714   0.2222222), wk =   0.0063492
        k(   19) = (   0.0000000   0.4285714   0.3333333), wk =   0.0063492
        k(   20) = (   0.0000000   0.4285714   0.4444444), wk =   0.0063492
        k(   21) = (   0.2000000   0.0000000   0.0000000), wk =   0.0063492
        k(   22) = (   0.2000000   0.0000000   0.1111111), wk =   0.0063492
        k(   23) = (   0.2000000   0.0000000   0.2222222), wk =   0.0063492
        k(   24) = (   0.2000000   0.0000000   0.3333333), wk =   0.0063492
        k(   25) = (   0.2000000   0.0000000   0.4444444), wk =   0.0063492
        k(   26) = (   0.2000000   0.1428571   0.0000000), wk =   0.0063492
        k(   27) = (   0.2000000   0.1428571   0.1111111), wk =   0.0063492
        k(   28) = (   0.2000000   0.1428571   0.2222222), wk =   0.0063492
        k(   29) = (   0.2000000   0.1428571   0.3333333), wk =   0.0063492
        k(   30) = (   0.2000000   0.1428571   0.4444444), wk =   0.0063492
        k(   31) = (   0.2000000   0.2857143   0.0000000), wk =   0.0063492
        k(   32) = (   0.2000000   0.2857143   0.1111111), wk =   0.0063492
        k(   33) = (   0.2000000   0.2857143   0.2222222), wk =   0.0063492
        k(   34) = (   0.2000000   0.2857143   0.3333333), wk =   0.0063492
        k(   35) = (   0.2000000   0.2857143   0.4444444), wk =   0.0063492
        k(   36) = (   0.2000000   0.4285714   0.0000000), wk =   0.0063492
        k(   37) = (   0.2000000   0.4285714   0.1111111), wk =   0.0063492
        k(   38) = (   0.2000000   0.4285714   0.2222222), wk =   0.0063492
        k(   39) = (   0.2000000   0.4285714   0.3333333), wk =   0.0063492
        k(   40) = (   0.2000000   0.4285714   0.4444444), wk =   0.0063492
        k(   41) = (   0.4000000   0.0000000   0.0000000), wk =   0.0063492
        k(   42) = (   0.4000000   0.0000000   0.1111111), wk =   0.0063492
        k(   43) = (   0.4000000   0.0000000   0.2222222), wk =   0.0063492
        k(   44) = (   0.4000000   0.0000000   0.3333333), wk =   0.0063492
        k(   45) = (   0.4000000   0.0000000   0.4444444), wk =   0.0063492
        k(   46) = (   0.4000000   0.1428571   0.0000000), wk =   0.0063492
        k(   47) = (   0.4000000   0.1428571   0.1111111), wk =   0.0063492
        k(   48) = (   0.4000000   0.1428571   0.2222222), wk =   0.0063492
        k(   49) = (   0.4000000   0.1428571   0.3333333), wk =   0.0063492
        k(   50) = (   0.4000000   0.1428571   0.4444444), wk =   0.0063492
        k(   51) = (   0.4000000   0.2857143   0.0000000), wk =   0.0063492
        k(   52) = (   0.4000000   0.2857143   0.1111111), wk =   0.0063492
        k(   53) = (   0.4000000   0.2857143   0.2222222), wk =   0.0063492
        k(   54) = (   0.4000000   0.2857143   0.3333333), wk =   0.0063492
        k(   55) = (   0.4000000   0.2857143   0.4444444), wk =   0.0063492
        k(   56) = (   0.4000000   0.4285714   0.0000000), wk =   0.0063492
        k(   57) = (   0.4000000   0.4285714   0.1111111), wk =   0.0063492
        k(   58) = (   0.4000000   0.4285714   0.2222222), wk =   0.0063492
        k(   59) = (   0.4000000   0.4285714   0.3333333), wk =   0.0063492
        k(   60) = (   0.4000000   0.4285714   0.4444444), wk =   0.0063492
        k(   61) = (   0.0000000  -0.1428571   0.1111111), wk =   0.0063492
        k(   62) = (   0.0000000  -0.1428571   0.2222222), wk =   0.0063492
        k(   63) = (   0.0000000  -0.1428571   0.3333333), wk =   0.0063492
        k(   64) = (   0.0000000  -0.1428571   0.4444444), wk =   0.0063492
        k(   65) = (   0.0000000  -0.2857143   0.1111111), wk =   0.0063492
        k(   66) = (   0.0000000  -0.2857143   0.2222222), wk =   0.0063492
        k(   67) = (   0.0000000  -0.2857143   0.3333333), wk =   0.0063492
        k(   68) = (   0.0000000  -0.2857143   0.4444444), wk =   0.0063492
        k(   69) = (   0.0000000  -0.4285714   0.1111111), wk =   0.0063492
        k(   70) = (   0.0000000  -0.4285714   0.2222222), wk =   0.0063492
        k(   71) = (   0.0000000  -0.4285714   0.3333333), wk =   0.0063492
        k(   72) = (   0.0000000  -0.4285714   0.4444444), wk =   0.0063492
        k(   73) = (  -0.2000000   0.0000000   0.1111111), wk =   0.0063492
        k(   74) = (  -0.2000000   0.0000000   0.2222222), wk =   0.0063492
        k(   75) = (  -0.2000000   0.0000000   0.3333333), wk =   0.0063492
        k(   76) = (  -0.2000000   0.0000000   0.4444444), wk =   0.0063492
        k(   77) = (  -0.2000000   0.1428571   0.0000000), wk =   0.0063492
        k(   78) = (  -0.2000000  -0.1428571   0.1111111), wk =   0.0063492
        k(   79) = (  -0.2000000   0.1428571  -0.1111111), wk =   0.0063492
        k(   80) = (   0.2000000  -0.1428571  -0.1111111), wk =   0.0063492
        k(   81) = (  -0.2000000  -0.1428571   0.2222222), wk =   0.0063492
        k(   82) = (  -0.2000000   0.1428571  -0.2222222), wk =   0.0063492
        k(   83) = (   0.2000000  -0.1428571  -0.2222222), wk =   0.0063492
        k(   84) = (  -0.2000000  -0.1428571   0.3333333), wk =   0.0063492
        k(   85) = (  -0.2000000   0.1428571  -0.3333333), wk =   0.0063492
        k(   86) = (   0.2000000  -0.1428571  -0.3333333), wk =   0.0063492
        k(   87) = (  -0.2000000  -0.1428571   0.4444444), wk =   0.0063492
        k(   88) = (  -0.2000000   0.1428571  -0.4444444), wk =   0.0063492
        k(   89) = (   0.2000000  -0.1428571  -0.4444444), wk =   0.0063492
        k(   90) = (  -0.2000000   0.2857143   0.0000000), wk =   0.0063492
        k(   91) = (  -0.2000000  -0.2857143   0.1111111), wk =   0.0063492
        k(   92) = (  -0.2000000   0.2857143  -0.1111111), wk =   0.0063492
        k(   93) = (   0.2000000  -0.2857143  -0.1111111), wk =   0.0063492
        k(   94) = (  -0.2000000  -0.2857143   0.2222222), wk =   0.0063492
        k(   95) = (  -0.2000000   0.2857143  -0.2222222), wk =   0.0063492
        k(   96) = (   0.2000000  -0.2857143  -0.2222222), wk =   0.0063492
        k(   97) = (  -0.2000000  -0.2857143   0.3333333), wk =   0.0063492
        k(   98) = (  -0.2000000   0.2857143  -0.3333333), wk =   0.0063492
        k(   99) = (   0.2000000  -0.2857143  -0.3333333), wk =   0.0063492
        k(  100) = (  -0.2000000  -0.2857143   0.4444444), wk =   0.0063492
        k(  101) = (  -0.2000000   0.2857143  -0.4444444), wk =   0.0063492
        k(  102) = (   0.2000000  -0.2857143  -0.4444444), wk =   0.0063492
        k(  103) = (  -0.2000000   0.4285714   0.0000000), wk =   0.0063492
        k(  104) = (  -0.2000000  -0.4285714   0.1111111), wk =   0.0063492
        k(  105) = (  -0.2000000   0.4285714  -0.1111111), wk =   0.0063492
        k(  106) = (   0.2000000  -0.4285714  -0.1111111), wk =   0.0063492
        k(  107) = (  -0.2000000  -0.4285714   0.2222222), wk =   0.0063492
        k(  108) = (  -0.2000000   0.4285714  -0.2222222), wk =   0.0063492
        k(  109) = (   0.2000000  -0.4285714  -0.2222222), wk =   0.0063492
        k(  110) = (  -0.2000000  -0.4285714   0.3333333), wk =   0.0063492
        k(  111) = (  -0.2000000   0.4285714  -0.3333333), wk =   0.0063492
        k(  112) = (   0.2000000  -0.4285714  -0.3333333), wk =   0.0063492
        k(  113) = (  -0.2000000  -0.4285714   0.4444444), wk =   0.0063492
        k(  114) = (  -0.2000000   0.4285714  -0.4444444), wk =   0.0063492
        k(  115) = (   0.2000000  -0.4285714  -0.4444444), wk =   0.0063492
        k(  116) = (  -0.4000000   0.0000000   0.1111111), wk =   0.0063492
        k(  117) = (  -0.4000000   0.0000000   0.2222222), wk =   0.0063492
        k(  118) = (  -0.4000000   0.0000000   0.3333333), wk =   0.0063492
        k(  119) = (  -0.4000000   0.0000000   0.4444444), wk =   0.0063492
        k(  120) = (  -0.4000000   0.1428571   0.0000000), wk =   0.0063492
        k(  121) = (  -0.4000000  -0.1428571   0.1111111), wk =   0.0063492
        k(  122) = (  -0.4000000   0.1428571  -0.1111111), wk =   0.0063492
        k(  123) = (   0.4000000  -0.1428571  -0.1111111), wk =   0.0063492
        k(  124) = (  -0.4000000  -0.1428571   0.2222222), wk =   0.0063492
        k(  125) = (  -0.4000000   0.1428571  -0.2222222), wk =   0.0063492
        k(  126) = (   0.4000000  -0.1428571  -0.2222222), wk =   0.0063492
        k(  127) = (  -0.4000000  -0.1428571   0.3333333), wk =   0.0063492
        k(  128) = (  -0.4000000   0.1428571  -0.3333333), wk =   0.0063492
        k(  129) = (   0.4000000  -0.1428571  -0.3333333), wk =   0.0063492
        k(  130) = (  -0.4000000  -0.1428571   0.4444444), wk =   0.0063492
        k(  131) = (  -0.4000000   0.1428571  -0.4444444), wk =   0.0063492
        k(  132) = (   0.4000000  -0.1428571  -0.4444444), wk =   0.0063492
        k(  133) = (  -0.4000000   0.2857143   0.0000000), wk =   0.0063492
        k(  134) = (  -0.4000000  -0.2857143   0.1111111), wk =   0.0063492
        k(  135) = (  -0.4000000   0.2857143  -0.1111111), wk =   0.0063492
        k(  136) = (   0.4000000  -0.2857143  -0.1111111), wk =   0.0063492
        k(  137) = (  -0.4000000  -0.2857143   0.2222222), wk =   0.0063492
        k(  138) = (  -0.4000000   0.2857143  -0.2222222), wk =   0.0063492
        k(  139) = (   0.4000000  -0.2857143  -0.2222222), wk =   0.0063492
        k(  140) = (  -0.4000000  -0.2857143   0.3333333), wk =   0.0063492
        k(  141) = (  -0.4000000   0.2857143  -0.3333333), wk =   0.0063492
        k(  142) = (   0.4000000  -0.2857143  -0.3333333), wk =   0.0063492
        k(  143) = (  -0.4000000  -0.2857143   0.4444444), wk =   0.0063492
        k(  144) = (  -0.4000000   0.2857143  -0.4444444), wk =   0.0063492
        k(  145) = (   0.4000000  -0.2857143  -0.4444444), wk =   0.0063492
        k(  146) = (  -0.4000000   0.4285714   0.0000000), wk =   0.0063492
        k(  147) = (  -0.4000000  -0.4285714   0.1111111), wk =   0.0063492
        k(  148) = (  -0.4000000   0.4285714  -0.1111111), wk =   0.0063492
        k(  149) = (   0.4000000  -0.4285714  -0.1111111), wk =   0.0063492
        k(  150) = (  -0.4000000  -0.4285714   0.2222222), wk =   0.0063492
        k(  151) = (  -0.4000000   0.4285714  -0.2222222), wk =   0.0063492
        k(  152) = (   0.4000000  -0.4285714  -0.2222222), wk =   0.0063492
        k(  153) = (  -0.4000000  -0.4285714   0.3333333), wk =   0.0063492
        k(  154) = (  -0.4000000   0.4285714  -0.3333333), wk =   0.0063492
        k(  155) = (   0.4000000  -0.4285714  -0.3333333), wk =   0.0063492
        k(  156) = (  -0.4000000  -0.4285714   0.4444444), wk =   0.0063492
        k(  157) = (  -0.4000000   0.4285714  -0.4444444), wk =   0.0063492
        k(  158) = (   0.4000000  -0.4285714  -0.4444444), wk =   0.0063492

     Dense  grid:  1294859 G-vectors     FFT dimensions: ( 216, 125, 100)

     Smooth grid:   291873 G-vectors     FFT dimensions: ( 125,  75,  60)

     Dynamical RAM for                 wfc:       3.97 MB

     Dynamical RAM for     wfc (w. buffer):    1257.24 MB

     Dynamical RAM for           str. fact:       4.94 MB

     Dynamical RAM for           local pot:       0.00 MB

     Dynamical RAM for          nlocal pot:       9.74 MB

     Dynamical RAM for                qrad:      10.54 MB

     Dynamical RAM for          rho,v,vnew:      16.06 MB

     Dynamical RAM for               rhoin:       5.35 MB

     Dynamical RAM for            rho*nmix:      39.52 MB

     Dynamical RAM for           G-vectors:       4.77 MB

     Dynamical RAM for          h,s,v(r/c):       2.38 MB

     Dynamical RAM for          <psi|beta>:       0.49 MB

     Dynamical RAM for                 psi:       7.93 MB

     Dynamical RAM for                hpsi:       7.93 MB

     Dynamical RAM for                spsi:       7.93 MB

     Dynamical RAM for      wfcinit/wfcrot:       9.96 MB

     Dynamical RAM for           addusdens:     250.68 MB

     Dynamical RAM for          addusforce:     287.85 MB

     Dynamical RAM for         addusstress:     250.06 MB

     Estimated static dynamical RAM per process >       1.33 GB

     Estimated max dynamical RAM per process >       1.61 GB

     Estimated total dynamical RAM >      25.79 GB

     Check: negative core charge=   -0.000003
     Generating pointlists ...
     new r_m :   0.0754 (alat units)  1.4829 (a.u.) for type    1
     new r_m :   0.0869 (alat units)  1.7094 (a.u.) for type    2
     new r_m :   0.0607 (alat units)  1.1928 (a.u.) for type    3
     new r_m :   0.0607 (alat units)  1.1928 (a.u.) for type    4

     Initial potential from superposition of free atoms

     starting charge  188.99132, renormalised to  189.00000
     Starting wfcs are  137 randomized atomic wfcs
     Checking if some PAW data can be deallocated... 
       PAW data deallocated on   13 nodes for type:  1
       PAW data deallocated on    4 nodes for type:  3

     total cpu time spent up to now is       85.2 secs

     Self-consistent Calculation

     iteration #  1     ecut=   100.00 Ry     beta= 0.40
     Davidson diagonalization with overlap
     ethr =  1.00E-02,  avg # of iterations =  3.0

     negative rho (up, down):  0.000E+00 6.760E-05

     total cpu time spent up to now is      329.0 secs

     total energy              =   -2123.89011164 Ry
     estimated scf accuracy    <       6.96800815 Ry

     total magnetization       =    19.00 Bohr mag/cell
     absolute magnetization    =    19.00 Bohr mag/cell

     iteration #  2     ecut=   100.00 Ry     beta= 0.40
     Davidson diagonalization with overlap
     ethr =  3.69E-03,  avg # of iterations =  2.0

     negative rho (up, down):  0.000E+00 4.013E-05

     total cpu time spent up to now is      553.6 secs

     total energy              =   -2120.95369970 Ry
     estimated scf accuracy    <      39.86310606 Ry

     total magnetization       =     7.61 Bohr mag/cell
     absolute magnetization    =     9.31 Bohr mag/cell

     iteration #  3     ecut=   100.00 Ry     beta= 0.40
     Davidson diagonalization with overlap
     ethr =  3.69E-03,  avg # of iterations =  2.9

     negative rho (up, down):  0.000E+00 2.844E-05

     total cpu time spent up to now is      758.2 secs

     total energy              =   -2123.09668871 Ry
     estimated scf accuracy    <      78.08462183 Ry

     total magnetization       =     1.00 Bohr mag/cell
     absolute magnetization    =     5.28 Bohr mag/cell

     iteration #  4     ecut=   100.00 Ry     beta= 0.40
     Davidson diagonalization with overlap
     ethr =  3.69E-03,  avg # of iterations =  1.5

     negative rho (up, down):  0.000E+00 4.048E-05

     total cpu time spent up to now is      937.4 secs

     total energy              =   -2125.61149699 Ry
     estimated scf accuracy    <       5.06924905 Ry

     total magnetization       =    16.22 Bohr mag/cell
     absolute magnetization    =    16.27 Bohr mag/cell

     iteration #  5     ecut=   100.00 Ry     beta= 0.40
     Davidson diagonalization with overlap
     ethr =  2.68E-03,  avg # of iterations =  1.9

     negative rho (up, down):  0.000E+00 6.097E-05

     total cpu time spent up to now is     1126.4 secs

     total energy              =   -2125.67499326 Ry
     estimated scf accuracy    <       6.39698360 Ry

     total magnetization       =    14.93 Bohr mag/cell
     absolute magnetization    =    15.05 Bohr mag/cell

     iteration #  6     ecut=   100.00 Ry     beta= 0.40
     Davidson diagonalization with overlap
     ethr =  2.68E-03,  avg # of iterations =  1.0

     negative rho (up, down):  0.000E+00 1.352E-04

     total cpu time spent up to now is     1292.5 secs

     total energy              =   -2126.00153489 Ry
     estimated scf accuracy    <       0.78012235 Ry

     total magnetization       =    19.06 Bohr mag/cell
     absolute magnetization    =    19.06 Bohr mag/cell

     iteration #  7     ecut=   100.00 Ry     beta= 0.40
     Davidson diagonalization with overlap
     ethr =  4.13E-04,  avg # of iterations =  1.8

     negative rho (up, down):  0.000E+00 2.593E-04

     total cpu time spent up to now is     1478.7 secs

     total energy              =   -2126.08037657 Ry
     estimated scf accuracy    <       1.03996473 Ry

     total magnetization       =    18.88 Bohr mag/cell
     absolute magnetization    =    18.88 Bohr mag/cell

     iteration #  8     ecut=   100.00 Ry     beta= 0.40
     Davidson diagonalization with overlap
     ethr =  4.13E-04,  avg # of iterations =  1.0

     negative rho (up, down):  0.000E+00 5.783E-04

     total cpu time spent up to now is     1645.2 secs

     total energy              =   -2126.05998527 Ry
     estimated scf accuracy    <       0.51392291 Ry

     total magnetization       =    19.00 Bohr mag/cell
     absolute magnetization    =    19.01 Bohr mag/cell

     iteration #  9     ecut=   100.00 Ry     beta= 0.40
     Davidson diagonalization with overlap
     ethr =  2.72E-04,  avg # of iterations =  2.2

     negative rho (up, down):  0.000E+00 8.338E-04

     total cpu time spent up to now is     1835.2 secs

     total energy              =   -2126.09263274 Ry
     estimated scf accuracy    <       0.51145272 Ry

     total magnetization       =    19.00 Bohr mag/cell
     absolute magnetization    =    19.01 Bohr mag/cell

     iteration # 10     ecut=   100.00 Ry     beta= 0.40
     Davidson diagonalization with overlap
     ethr =  2.71E-04,  avg # of iterations =  1.4

     negative rho (up, down):  0.000E+00 8.529E-04

     total cpu time spent up to now is     2010.9 secs

     total energy              =   -2126.10533321 Ry
     estimated scf accuracy    <       0.38912900 Ry

     total magnetization       =    19.00 Bohr mag/cell
     absolute magnetization    =    19.02 Bohr mag/cell

     iteration # 11     ecut=   100.00 Ry     beta= 0.40
     Davidson diagonalization with overlap
     ethr =  2.06E-04,  avg # of iterations =  1.1

     negative rho (up, down):  0.000E+00 8.982E-04

     total cpu time spent up to now is     2180.0 secs

     total energy              =   -2126.10193766 Ry
     estimated scf accuracy    <       0.30888707 Ry

     total magnetization       =    19.00 Bohr mag/cell
     absolute magnetization    =    19.02 Bohr mag/cell

     iteration # 12     ecut=   100.00 Ry     beta= 0.40
     Davidson diagonalization with overlap
     ethr =  1.63E-04,  avg # of iterations =  1.3

     negative rho (up, down):  0.000E+00 8.733E-04

     total cpu time spent up to now is     2351.1 secs

     total energy              =   -2126.09574338 Ry
     estimated scf accuracy    <       0.31415226 Ry

     total magnetization       =    19.00 Bohr mag/cell
     absolute magnetization    =    19.03 Bohr mag/cell

     iteration # 13     ecut=   100.00 Ry     beta= 0.40
     Davidson diagonalization with overlap
     ethr =  1.63E-04,  avg # of iterations =  1.5

     negative rho (up, down):  0.000E+00 9.565E-04

     total cpu time spent up to now is     2526.8 secs

     total energy              =   -2126.09909032 Ry
     estimated scf accuracy    <       0.05572895 Ry

     total magnetization       =    19.00 Bohr mag/cell
     absolute magnetization    =    19.03 Bohr mag/cell

     iteration # 14     ecut=   100.00 Ry     beta= 0.40
     Davidson diagonalization with overlap
     c_bands:  1 eigenvalues not converged
     c_bands:  1 eigenvalues not converged
     c_bands:  1 eigenvalues not converged
     c_bands:  1 eigenvalues not converged
     c_bands:  1 eigenvalues not converged
     c_bands:  1 eigenvalues not converged
     c_bands:  1 eigenvalues not converged
     c_bands:  1 eigenvalues not converged
     c_bands:  1 eigenvalues not converged
     ethr =  2.95E-05,  avg # of iterations = 14.3

     negative rho (up, down):  0.000E+00 9.800E-04

     total cpu time spent up to now is     2848.9 secs

     total energy              =   -2126.10011027 Ry
     estimated scf accuracy    <       0.02916115 Ry

     total magnetization       =    19.00 Bohr mag/cell
     absolute magnetization    =    19.04 Bohr mag/cell

     iteration # 15     ecut=   100.00 Ry     beta= 0.40
     Davidson diagonalization with overlap
     ethr =  1.54E-05,  avg # of iterations =  1.8

     negative rho (up, down):  0.000E+00 9.734E-04

     total cpu time spent up to now is     3028.0 secs

     total energy              =   -2126.10103765 Ry
     estimated scf accuracy    <       0.01822382 Ry

     total magnetization       =    19.00 Bohr mag/cell
     absolute magnetization    =    19.04 Bohr mag/cell

     iteration # 16     ecut=   100.00 Ry     beta= 0.40
     Davidson diagonalization with overlap
     ethr =  9.64E-06,  avg # of iterations =  1.1

     negative rho (up, down):  0.000E+00 9.741E-04

     total cpu time spent up to now is     3195.8 secs

     total energy              =   -2126.10156096 Ry
     estimated scf accuracy    <       0.00181095 Ry

     total magnetization       =    19.00 Bohr mag/cell
     absolute magnetization    =    19.04 Bohr mag/cell

     iteration # 17     ecut=   100.00 Ry     beta= 0.40
     Davidson diagonalization with overlap
     c_bands:  1 eigenvalues not converged
     c_bands:  1 eigenvalues not converged
     c_bands:  1 eigenvalues not converged
     c_bands:  1 eigenvalues not converged
     c_bands:  1 eigenvalues not converged
     c_bands:  1 eigenvalues not converged
     c_bands:  1 eigenvalues not converged
     c_bands:  1 eigenvalues not converged
     ethr =  9.58E-07,  avg # of iterations =  7.4

     negative rho (up, down):  0.000E+00 9.584E-04

     total cpu time spent up to now is     3449.0 secs

     total energy              =   -2126.10176777 Ry
     estimated scf accuracy    <       0.00107385 Ry

     total magnetization       =    19.00 Bohr mag/cell
     absolute magnetization    =    19.04 Bohr mag/cell

     iteration # 18     ecut=   100.00 Ry     beta= 0.40
     Davidson diagonalization with overlap
     ethr =  5.68E-07,  avg # of iterations =  1.5

     negative rho (up, down):  0.000E+00 9.543E-04

     total cpu time spent up to now is     3625.8 secs

     total energy              =   -2126.10183575 Ry
     estimated scf accuracy    <       0.00036796 Ry

     total magnetization       =    19.00 Bohr mag/cell
     absolute magnetization    =    19.05 Bohr mag/cell

     iteration # 19     ecut=   100.00 Ry     beta= 0.40
     Davidson diagonalization with overlap
     ethr =  1.95E-07,  avg # of iterations =  3.5

     negative rho (up, down):  0.000E+00 9.530E-04

     total cpu time spent up to now is     3840.7 secs

     total energy              =   -2126.10187928 Ry
     estimated scf accuracy    <       0.00025758 Ry

     total magnetization       =    19.00 Bohr mag/cell
     absolute magnetization    =    19.05 Bohr mag/cell

     iteration # 20     ecut=   100.00 Ry     beta= 0.40
     Davidson diagonalization with overlap
     ethr =  1.36E-07,  avg # of iterations =  1.1

     negative rho (up, down):  0.000E+00 9.526E-04

     total cpu time spent up to now is     4008.0 secs

     total energy              =   -2126.10189710 Ry
     estimated scf accuracy    <       0.00012112 Ry

     total magnetization       =    19.00 Bohr mag/cell
     absolute magnetization    =    19.05 Bohr mag/cell

     iteration # 21     ecut=   100.00 Ry     beta= 0.40
     Davidson diagonalization with overlap
     ethr =  6.41E-08,  avg # of iterations =  1.9

     negative rho (up, down):  0.000E+00 9.521E-04

     total cpu time spent up to now is     4198.1 secs

     total energy              =   -2126.10190779 Ry
     estimated scf accuracy    <       0.00000349 Ry

     total magnetization       =    19.00 Bohr mag/cell
     absolute magnetization    =    19.05 Bohr mag/cell

     iteration # 22     ecut=   100.00 Ry     beta= 0.40
     Davidson diagonalization with overlap
     ethr =  1.85E-09,  avg # of iterations =  7.8

     negative rho (up, down):  0.000E+00 9.525E-04

     total cpu time spent up to now is     4714.3 secs

     total energy              =   -2126.10191732 Ry
     estimated scf accuracy    <       0.00000250 Ry

     total magnetization       =    19.00 Bohr mag/cell
     absolute magnetization    =    19.05 Bohr mag/cell

     iteration # 23     ecut=   100.00 Ry     beta= 0.40
     Davidson diagonalization with overlap
     ethr =  1.33E-09,  avg # of iterations =  2.0

     negative rho (up, down):  0.000E+00 9.525E-04

     total cpu time spent up to now is     4910.2 secs

     total energy              =   -2126.10191831 Ry
     estimated scf accuracy    <       0.00000389 Ry

     total magnetization       =    19.00 Bohr mag/cell
     absolute magnetization    =    19.05 Bohr mag/cell

     iteration # 24     ecut=   100.00 Ry     beta= 0.40
     Davidson diagonalization with overlap
     ethr =  1.33E-09,  avg # of iterations =  2.0

     negative rho (up, down):  0.000E+00 9.532E-04

     total cpu time spent up to now is     5102.9 secs

     total energy              =   -2126.10191881 Ry
     estimated scf accuracy    <       0.00000297 Ry

     total magnetization       =    19.00 Bohr mag/cell
     absolute magnetization    =    19.05 Bohr mag/cell

     iteration # 25     ecut=   100.00 Ry     beta= 0.40
     Davidson diagonalization with overlap
     ethr =  1.33E-09,  avg # of iterations =  1.0

     negative rho (up, down):  0.000E+00 9.531E-04

     total cpu time spent up to now is     5269.0 secs

     total energy              =   -2126.10191897 Ry
     estimated scf accuracy    <       0.00000051 Ry

     total magnetization       =    19.00 Bohr mag/cell
     absolute magnetization    =    19.05 Bohr mag/cell

     iteration # 26     ecut=   100.00 Ry     beta= 0.40
     Davidson diagonalization with overlap
     ethr =  2.72E-10,  avg # of iterations =  1.3

     negative rho (up, down):  0.000E+00 9.530E-04

     total cpu time spent up to now is     5441.3 secs

     total energy              =   -2126.10191903 Ry
     estimated scf accuracy    <       0.00000011 Ry

     total magnetization       =    19.00 Bohr mag/cell
     absolute magnetization    =    19.05 Bohr mag/cell

     iteration # 27     ecut=   100.00 Ry     beta= 0.40
     Davidson diagonalization with overlap
     ethr =  6.07E-11,  avg # of iterations =  2.5

     negative rho (up, down):  0.000E+00 9.528E-04

     total cpu time spent up to now is     5638.8 secs

     total energy              =   -2126.10191906 Ry
     estimated scf accuracy    <       0.00000005 Ry

     total magnetization       =    19.00 Bohr mag/cell
     absolute magnetization    =    19.05 Bohr mag/cell

     iteration # 28     ecut=   100.00 Ry     beta= 0.40
     Davidson diagonalization with overlap
     ethr =  2.58E-11,  avg # of iterations =  2.2

     negative rho (up, down):  0.000E+00 9.527E-04

     total cpu time spent up to now is     5837.1 secs

     total energy              =   -2126.10191907 Ry
     estimated scf accuracy    <       0.00000004 Ry

     total magnetization       =    19.00 Bohr mag/cell
     absolute magnetization    =    19.05 Bohr mag/cell

     iteration # 29     ecut=   100.00 Ry     beta= 0.40
     Davidson diagonalization with overlap
     ethr =  2.28E-11,  avg # of iterations =  1.7

     negative rho (up, down):  0.000E+00 9.527E-04

     total cpu time spent up to now is     6020.9 secs

     total energy              =   -2126.10191908 Ry
     estimated scf accuracy    <       0.00000003 Ry

     total magnetization       =    19.00 Bohr mag/cell
     absolute magnetization    =    19.05 Bohr mag/cell

     iteration # 30     ecut=   100.00 Ry     beta= 0.40
     Davidson diagonalization with overlap
     ethr =  1.34E-11,  avg # of iterations =  1.3

     negative rho (up, down):  0.000E+00 9.527E-04

     total cpu time spent up to now is     6192.7 secs

     total energy              =   -2126.10191908 Ry
     estimated scf accuracy    <          1.8E-09 Ry

     total magnetization       =    19.00 Bohr mag/cell
     absolute magnetization    =    19.05 Bohr mag/cell

     iteration # 31     ecut=   100.00 Ry     beta= 0.40
     Davidson diagonalization with overlap
     ethr =  9.71E-13,  avg # of iterations =  5.9

     negative rho (up, down):  0.000E+00 9.528E-04

     total cpu time spent up to now is     6582.0 secs

     total energy              =   -2126.10191908 Ry
     estimated scf accuracy    <          3.8E-09 Ry

     total magnetization       =    19.00 Bohr mag/cell
     absolute magnetization    =    19.05 Bohr mag/cell

     iteration # 32     ecut=   100.00 Ry     beta= 0.40
     Davidson diagonalization with overlap
     ethr =  9.71E-13,  avg # of iterations =  1.0

     negative rho (up, down):  0.000E+00 9.528E-04

     total cpu time spent up to now is     6748.8 secs

     total energy              =   -2126.10191908 Ry
     estimated scf accuracy    <          3.1E-09 Ry

     total magnetization       =    19.00 Bohr mag/cell
     absolute magnetization    =    19.05 Bohr mag/cell

     iteration # 33     ecut=   100.00 Ry     beta= 0.40
     Davidson diagonalization with overlap
     ethr =  9.71E-13,  avg # of iterations =  2.0

     negative rho (up, down):  0.000E+00 9.528E-04

     total cpu time spent up to now is     6940.8 secs

     total energy              =   -2126.10191908 Ry
     estimated scf accuracy    <          7.1E-10 Ry

     total magnetization       =    19.00 Bohr mag/cell
     absolute magnetization    =    19.05 Bohr mag/cell

     iteration # 34     ecut=   100.00 Ry     beta= 0.40
     Davidson diagonalization with overlap
     ethr =  3.78E-13,  avg # of iterations =  2.0

     negative rho (up, down):  0.000E+00 9.528E-04

     total cpu time spent up to now is     7134.5 secs

     total energy              =   -2126.10191908 Ry
     estimated scf accuracy    <          6.5E-10 Ry

     total magnetization       =    19.00 Bohr mag/cell
     absolute magnetization    =    19.05 Bohr mag/cell

     iteration # 35     ecut=   100.00 Ry     beta= 0.40
     Davidson diagonalization with overlap
     ethr =  3.41E-13,  avg # of iterations =  1.0

     negative rho (up, down):  0.000E+00 9.528E-04

     total cpu time spent up to now is     7300.7 secs

     total energy              =   -2126.10191908 Ry
     estimated scf accuracy    <          4.2E-10 Ry

     total magnetization       =    19.00 Bohr mag/cell
     absolute magnetization    =    19.05 Bohr mag/cell

     iteration # 36     ecut=   100.00 Ry     beta= 0.40
     Davidson diagonalization with overlap
     ethr =  2.22E-13,  avg # of iterations =  2.0

     negative rho (up, down):  0.000E+00 9.528E-04

     Magnetic moment per site:
     atom:    1    charge:    7.8822    magn:    0.0007    constr:    0.0000
     atom:    2    charge:   12.8301    magn:    3.6020    constr:    0.0000
     atom:    3    charge:   12.8464    magn:    3.5518    constr:    0.0000
     atom:    4    charge:   12.8173    magn:    3.6286    constr:    0.0000
     atom:    5    charge:   12.8173    magn:    3.6254    constr:    0.0000
     atom:    6    charge:    0.8294    magn:    0.0103    constr:    0.0000
     atom:    7    charge:    0.8399    magn:    0.0104    constr:    0.0000
     atom:    8    charge:    0.8310    magn:    0.0086    constr:    0.0000
     atom:    9    charge:    0.8296    magn:    0.0111    constr:    0.0000
     atom:   10    charge:    4.2353    magn:    0.0822    constr:    0.0000
     atom:   11    charge:    4.2256    magn:    0.1571    constr:    0.0000
     atom:   12    charge:    4.2395    magn:    0.0914    constr:    0.0000
     atom:   13    charge:    4.2409    magn:    0.1473    constr:    0.0000
     atom:   14    charge:    4.2247    magn:    0.1453    constr:    0.0000
     atom:   15    charge:    4.2293    magn:    0.0782    constr:    0.0000
     atom:   16    charge:    4.2427    magn:    0.1191    constr:    0.0000
     atom:   17    charge:    4.2303    magn:    0.0988    constr:    0.0000
     atom:   18    charge:    4.2384    magn:    0.1088    constr:    0.0000
     atom:   19    charge:    4.2242    magn:    0.1409    constr:    0.0000
     atom:   20    charge:    4.2126    magn:    0.1362    constr:    0.0000
     atom:   21    charge:    4.2112    magn:    0.1467    constr:    0.0000
     atom:   22    charge:    4.2138    magn:    0.1248    constr:    0.0000
     atom:   23    charge:    4.2059    magn:    0.1441    constr:    0.0000
     atom:   24    charge:    4.2309    magn:    0.1283    constr:    0.0000
     atom:   25    charge:    4.2090    magn:    0.1778    constr:    0.0000

     total cpu time spent up to now is     7492.5 secs

     End of self-consistent calculation

 ------ SPIN UP ------------


          k = 0.0000 0.0000 0.0000 ( 36463 PWs)   bands (ev):

   -85.2377 -85.1467 -85.1294 -84.8619 -51.3593 -51.2941 -51.2417 -51.2242
   -51.1396 -51.1178 -51.1131 -51.0753 -51.0590 -50.9932 -50.7635 -50.6981
   -44.8117 -16.8710 -16.8233 -16.7885 -16.2475 -16.0445 -15.9081 -15.7563
   -13.8851 -13.7405 -13.6959 -13.6233 -13.5831 -13.5542 -13.4793 -13.4133
   -13.3846 -13.3561 -13.3357 -13.2031  -4.2625  -3.6935  -3.5795  -3.2135
    -2.2349  -1.9388  -1.8765  -1.6879  -1.5152  -1.4080  -1.3316  -1.2078
    -1.0051  -0.9643  -0.9461  -0.5888  -0.1341  -0.0196   0.1444   0.2808
     0.3944   0.4307   0.5618   0.6158   0.7885   0.8350   0.9136   1.0633
     1.0857   1.2447   1.2744   1.4083   1.5499   1.5950   1.7507   1.8116
     1.8785   2.0510   2.0774   2.1716   2.2512   2.3203   2.4129   2.4350
     2.6068   2.6385   2.7772   2.8516   2.8696   2.9254   3.0992   3.2449
     3.3297   3.3598   3.4528   3.4954   3.6108   3.6484   3.7614   3.8312
     4.0136   4.0539   4.1896   4.3632   4.4361   4.5740   4.6747   4.8220
     8.9681  10.9578  11.4279  11.7485  12.0796  12.9252  13.0380  13.2321
    13.3670  13.4248

     occupation numbers 
     1.0000   1.0000   1.0000   1.0000   1.0000   1.0000   1.0000   1.0000
     1.0000   1.0000   1.0000   1.0000   1.0000   1.0000   1.0000   1.0000
     1.0000   1.0000   1.0000   1.0000   1.0000   1.0000   1.0000   1.0000
     1.0000   1.0000   1.0000   1.0000   1.0000   1.0000   1.0000   1.0000
     1.0000   1.0000   1.0000   1.0000   1.0000   1.0000   1.0000   1.0000
     1.0000   1.0000   1.0000   1.0000   1.0000   1.0000   1.0000   1.0000
     1.0000   1.0000   1.0000   1.0000   1.0000   1.0000   1.0000   1.0000
     1.0000   1.0000   1.0000   1.0000   1.0000   1.0000   1.0000   1.0000
     1.0000   1.0000   1.0000   1.0000   1.0000   1.0000   1.0000   1.0000
     1.0000   1.0000   1.0000   1.0000   1.0000   1.0000   1.0000   1.0000
     1.0000   1.0000   1.0000   1.0000   1.0000   1.0000   1.0000   1.0000
     1.0000   1.0000   1.0000   1.0000   1.0000   1.0000   1.0000   1.0000
     1.0000   1.0000   1.0000   1.0000   1.0000   1.0000   1.0000   1.0000
     0.0000   0.0000   0.0000   0.0000   0.0000   0.0000   0.0000   0.0000
     0.0000   0.0000

          k = 0.0000 0.0000 0.2337 ( 36493 PWs)   bands (ev):

   -85.2377 -85.1467 -85.1294 -84.8619 -51.3593 -51.2941 -51.2417 -51.2242
   -51.1396 -51.1178 -51.1131 -51.0753 -51.0590 -50.9932 -50.7635 -50.6981
   -44.8117 -16.8735 -16.8231 -16.7893 -16.2294 -16.0393 -15.9021 -15.7553
   -13.8912 -13.7502 -13.7003 -13.6290 -13.5894 -13.5585 -13.4831 -13.4146
   -13.3842 -13.3610 -13.3378 -13.2059  -4.2363  -3.6858  -3.5731  -3.2145
    -2.2069  -1.9364  -1.8564  -1.6660  -1.5067  -1.4171  -1.3066  -1.1946
    -1.0279  -0.9779  -0.9052  -0.6013  -0.1486  -0.0220   0.1554   0.3007
     0.3928   0.4329   0.5663   0.6210   0.7618   0.8415   0.9017   1.0641
     1.0750   1.2142   1.2737   1.4269   1.5260   1.5817   1.7290   1.8379
     1.8437   2.0049   2.0808   2.1823   2.2603   2.2941   2.3940   2.4527
     2.6097   2.6499   2.7667   2.8551   2.8763   2.9437   3.0730   3.2546
     3.3058   3.3500   3.4172   3.4969   3.5945   3.6496   3.8015   3.8428
     4.0077   4.0555   4.1965   4.3437   4.4351   4.5501   4.7007   4.8101
     9.1156  11.0249  11.4811  11.7812  12.1331  12.8240  12.9713  13.2224
    13.2885  13.3809

     occupation numbers 
     1.0000   1.0000   1.0000   1.0000   1.0000   1.0000   1.0000   1.0000
     1.0000   1.0000   1.0000   1.0000   1.0000   1.0000   1.0000   1.0000
     1.0000   1.0000   1.0000   1.0000   1.0000   1.0000   1.0000   1.0000
     1.0000   1.0000   1.0000   1.0000   1.0000   1.0000   1.0000   1.0000
     1.0000   1.0000   1.0000   1.0000   1.0000   1.0000   1.0000   1.0000
     1.0000   1.0000   1.0000   1.0000   1.0000   1.0000   1.0000   1.0000
     1.0000   1.0000   1.0000   1.0000   1.0000   1.0000   1.0000   1.0000
     1.0000   1.0000   1.0000   1.0000   1.0000   1.0000   1.0000   1.0000
     1.0000   1.0000   1.0000   1.0000   1.0000   1.0000   1.0000   1.0000
     1.0000   1.0000   1.0000   1.0000   1.0000   1.0000   1.0000   1.0000
     1.0000   1.0000   1.0000   1.0000   1.0000   1.0000   1.0000   1.0000
     1.0000   1.0000   1.0000   1.0000   1.0000   1.0000   1.0000   1.0000
     1.0000   1.0000   1.0000   1.0000   1.0000   1.0000   1.0000   1.0000
     0.0000   0.0000   0.0000   0.0000   0.0000   0.0000   0.0000   0.0000
     0.0000   0.0000

          k = 0.0000 0.0000 0.4675 ( 36542 PWs)   bands (ev):

   -85.2377 -85.1467 -85.1294 -84.8619 -51.3593 -51.2941 -51.2417 -51.2242
   -51.1396 -51.1178 -51.1131 -51.0753 -51.0590 -50.9932 -50.7635 -50.6981
   -44.8117 -16.8817 -16.8218 -16.7890 -16.1824 -16.0267 -15.8868 -15.7534
   -13.9085 -13.7803 -13.7073 -13.6404 -13.6072 -13.5738 -13.4884 -13.4203
   -13.3889 -13.3631 -13.3431 -13.2136  -4.1646  -3.6639  -3.5585  -3.2358
    -2.1394  -1.9023  -1.8053  -1.6330  -1.4819  -1.4260  -1.2712  -1.1512
    -1.0235  -1.0027  -0.8533  -0.6411  -0.1520  -0.0165   0.1865   0.3436
     0.3731   0.4473   0.5578   0.6462   0.7421   0.8108   0.8911   1.0258
     1.0785   1.1967   1.2812   1.3979   1.4699   1.5465   1.6576   1.7614
     1.8804   1.9309   2.0526   2.1558   2.2491   2.3111   2.3594   2.4943
     2.5602   2.6583   2.7385   2.8248   2.9246   2.9651   3.0201   3.2109
     3.2787   3.3308   3.4429   3.5262   3.5737   3.6706   3.7937   3.9205
     4.0107   4.0632   4.1935   4.3067   4.4425   4.5176   4.7054   4.8033
     9.5124  11.2023  11.5980  11.8890  12.2715  12.5547  12.8425  13.0943
    13.1531  13.2544

     occupation numbers 
     1.0000   1.0000   1.0000   1.0000   1.0000   1.0000   1.0000   1.0000
     1.0000   1.0000   1.0000   1.0000   1.0000   1.0000   1.0000   1.0000
     1.0000   1.0000   1.0000   1.0000   1.0000   1.0000   1.0000   1.0000
     1.0000   1.0000   1.0000   1.0000   1.0000   1.0000   1.0000   1.0000
     1.0000   1.0000   1.0000   1.0000   1.0000   1.0000   1.0000   1.0000
     1.0000   1.0000   1.0000   1.0000   1.0000   1.0000   1.0000   1.0000
     1.0000   1.0000   1.0000   1.0000   1.0000   1.0000   1.0000   1.0000
     1.0000   1.0000   1.0000   1.0000   1.0000   1.0000   1.0000   1.0000
     1.0000   1.0000   1.0000   1.0000   1.0000   1.0000   1.0000   1.0000
     1.0000   1.0000   1.0000   1.0000   1.0000   1.0000   1.0000   1.0000
     1.0000   1.0000   1.0000   1.0000   1.0000   1.0000   1.0000   1.0000
     1.0000   1.0000   1.0000   1.0000   1.0000   1.0000   1.0000   1.0000
     1.0000   1.0000   1.0000   1.0000   1.0000   1.0000   1.0000   1.0000
     0.0000   0.0000   0.0000   0.0000   0.0000   0.0000   0.0000   0.0000
     0.0000   0.0000

          k = 0.0000 0.0000 0.7012 ( 36506 PWs)   bands (ev):

   -85.2377 -85.1467 -85.1294 -84.8619 -51.3593 -51.2941 -51.2417 -51.2242
   -51.1396 -51.1178 -51.1131 -51.0753 -51.0590 -50.9932 -50.7635 -50.6981
   -44.8117 -16.8927 -16.8199 -16.7858 -16.1246 -16.0148 -15.8689 -15.7532
   -13.9315 -13.8194 -13.7085 -13.6540 -13.6283 -13.5993 -13.4891 -13.4288
   -13.3950 -13.3579 -13.3481 -13.2236  -4.0700  -3.6338  -3.5421  -3.2963
    -2.0832  -1.8352  -1.7233  -1.6099  -1.4680  -1.4144  -1.2520  -1.1328
    -1.0155  -0.9601  -0.8037  -0.6985  -0.0880   0.0313   0.2173   0.3361
     0.4027   0.4483   0.5341   0.6497   0.7348   0.8175   0.8995   0.9610
     1.0626   1.1954   1.2328   1.3212   1.3826   1.4917   1.6402   1.6767
     1.8352   1.9079   2.0128   2.1106   2.2156   2.3050   2.3805   2.4808
     2.5262   2.6384   2.6953   2.7583   2.8859   2.9340   3.0772   3.1838
     3.2858   3.3090   3.4611   3.5664   3.6541   3.7184   3.7907   3.9606
     4.0204   4.0986   4.1875   4.2820   4.4478   4.4956   4.6356   4.8335
    10.0614  11.4182  11.6543  11.9871  12.2464  12.5147  12.7141  12.8913
    12.9943  13.1231

     occupation numbers 
     1.0000   1.0000   1.0000   1.0000   1.0000   1.0000   1.0000   1.0000
     1.0000   1.0000   1.0000   1.0000   1.0000   1.0000   1.0000   1.0000
     1.0000   1.0000   1.0000   1.0000   1.0000   1.0000   1.0000   1.0000
     1.0000   1.0000   1.0000   1.0000   1.0000   1.0000   1.0000   1.0000
     1.0000   1.0000   1.0000   1.0000   1.0000   1.0000   1.0000   1.0000
     1.0000   1.0000   1.0000   1.0000   1.0000   1.0000   1.0000   1.0000
     1.0000   1.0000   1.0000   1.0000   1.0000   1.0000   1.0000   1.0000
     1.0000   1.0000   1.0000   1.0000   1.0000   1.0000   1.0000   1.0000
     1.0000   1.0000   1.0000   1.0000   1.0000   1.0000   1.0000   1.0000
     1.0000   1.0000   1.0000   1.0000   1.0000   1.0000   1.0000   1.0000
     1.0000   1.0000   1.0000   1.0000   1.0000   1.0000   1.0000   1.0000
     1.0000   1.0000   1.0000   1.0000   1.0000   1.0000   1.0000   1.0000
     1.0000   1.0000   1.0000   1.0000   1.0000   1.0000   1.0000   1.0000
     0.0000   0.0000   0.0000   0.0000   0.0000   0.0000   0.0000   0.0000
     0.0000   0.0000

          k = 0.0000 0.0000 0.9349 ( 36496 PWs)   bands (ev):

   -85.2377 -85.1467 -85.1294 -84.8619 -51.3593 -51.2941 -51.2417 -51.2242
   -51.1396 -51.1178 -51.1131 -51.0753 -51.0590 -50.9932 -50.7635 -50.6981
   -44.8117 -16.9002 -16.8187 -16.7826 -16.0805 -16.0116 -15.8571 -15.7547
   -13.9483 -13.8461 -13.7006 -13.6743 -13.6384 -13.6194 -13.4876 -13.4345
   -13.3960 -13.3590 -13.3460 -13.2311  -3.9960  -3.6160  -3.5132  -3.3728
    -2.0574  -1.7981  -1.6536  -1.5848  -1.4549  -1.4001  -1.2420  -1.1548
    -1.0098  -0.9125  -0.7762  -0.7190   0.0419   0.1151   0.2123   0.3319
     0.3534   0.4641   0.5521   0.6299   0.7232   0.8031   0.8887   0.9905
     1.0148   1.0456   1.1797   1.2381   1.4220   1.4869   1.6303   1.6791
     1.7642   1.9066   2.0056   2.0921   2.1390   2.2404   2.3937   2.4791
     2.5179   2.5953   2.6697   2.7233   2.8565   2.9289   3.1116   3.1759
     3.2902   3.3189   3.4481   3.5765   3.7200   3.7662   3.8275   3.9624
     4.0386   4.1518   4.2226   4.2732   4.3763   4.5126   4.5631   4.8573
    10.6639  11.2446  11.6757  12.0461  12.2397  12.5077  12.6789  12.8090
    12.9059  13.0989

     occupation numbers 
     1.0000   1.0000   1.0000   1.0000   1.0000   1.0000   1.0000   1.0000
     1.0000   1.0000   1.0000   1.0000   1.0000   1.0000   1.0000   1.0000
     1.0000   1.0000   1.0000   1.0000   1.0000   1.0000   1.0000   1.0000
     1.0000   1.0000   1.0000   1.0000   1.0000   1.0000   1.0000   1.0000
     1.0000   1.0000   1.0000   1.0000   1.0000   1.0000   1.0000   1.0000
     1.0000   1.0000   1.0000   1.0000   1.0000   1.0000   1.0000   1.0000
     1.0000   1.0000   1.0000   1.0000   1.0000   1.0000   1.0000   1.0000
     1.0000   1.0000   1.0000   1.0000   1.0000   1.0000   1.0000   1.0000
     1.0000   1.0000   1.0000   1.0000   1.0000   1.0000   1.0000   1.0000
     1.0000   1.0000   1.0000   1.0000   1.0000   1.0000   1.0000   1.0000
     1.0000   1.0000   1.0000   1.0000   1.0000   1.0000   1.0000   1.0000
     1.0000   1.0000   1.0000   1.0000   1.0000   1.0000   1.0000   1.0000
     1.0000   1.0000   1.0000   1.0000   1.0000   1.0000   1.0000   1.0000
     0.0000   0.0000   0.0000   0.0000   0.0000   0.0000   0.0000   0.0000
     0.0000   0.0000

          k = 0.0000 0.2391 0.0000 ( 36485 PWs)   bands (ev):

   -85.2377 -85.1467 -85.1294 -84.8619 -51.3593 -51.2941 -51.2417 -51.2242
   -51.1396 -51.1178 -51.1131 -51.0753 -51.0590 -50.9932 -50.7635 -50.6981
   -44.8117 -16.8720 -16.8235 -16.7884 -16.2304 -16.0442 -15.9069 -15.7703
   -13.8928 -13.7425 -13.6932 -13.6296 -13.5915 -13.5523 -13.4919 -13.4259
   -13.3636 -13.3440 -13.3331 -13.2038  -4.2331  -3.6868  -3.5828  -3.2221
    -2.2137  -1.9370  -1.8671  -1.6898  -1.5029  -1.4033  -1.3198  -1.1733
    -1.0342  -0.9506  -0.9278  -0.5767  -0.1452  -0.0261   0.1383   0.2784
     0.3917   0.4360   0.5105   0.5512   0.7617   0.8200   0.9822   1.1013
     1.1276   1.2271   1.2977   1.3635   1.5225   1.6101   1.6900   1.7451
     1.8954   2.0125   2.1302   2.1619   2.2603   2.3457   2.4105   2.4760
     2.5888   2.6250   2.7549   2.7883   2.8926   2.9290   3.1085   3.2142
     3.3009   3.3616   3.4047   3.5085   3.6236   3.6877   3.7571   3.8286
     4.0120   4.0469   4.2055   4.3236   4.4127   4.5861   4.6953   4.8504
     9.1225  11.0487  11.5015  11.6888  12.1189  12.9421  13.0073  13.2513
    13.3272  13.3881

     occupation numbers 
     1.0000   1.0000   1.0000   1.0000   1.0000   1.0000   1.0000   1.0000
     1.0000   1.0000   1.0000   1.0000   1.0000   1.0000   1.0000   1.0000
     1.0000   1.0000   1.0000   1.0000   1.0000   1.0000   1.0000   1.0000
     1.0000   1.0000   1.0000   1.0000   1.0000   1.0000   1.0000   1.0000
     1.0000   1.0000   1.0000   1.0000   1.0000   1.0000   1.0000   1.0000
     1.0000   1.0000   1.0000   1.0000   1.0000   1.0000   1.0000   1.0000
     1.0000   1.0000   1.0000   1.0000   1.0000   1.0000   1.0000   1.0000
     1.0000   1.0000   1.0000   1.0000   1.0000   1.0000   1.0000   1.0000
     1.0000   1.0000   1.0000   1.0000   1.0000   1.0000   1.0000   1.0000
     1.0000   1.0000   1.0000   1.0000   1.0000   1.0000   1.0000   1.0000
     1.0000   1.0000   1.0000   1.0000   1.0000   1.0000   1.0000   1.0000
     1.0000   1.0000   1.0000   1.0000   1.0000   1.0000   1.0000   1.0000
     1.0000   1.0000   1.0000   1.0000   1.0000   1.0000   1.0000   1.0000
     0.0000   0.0000   0.0000   0.0000   0.0000   0.0000   0.0000   0.0000
     0.0000   0.0000

          k = 0.0000 0.2391 0.2337 ( 36495 PWs)   bands (ev):

   -85.2377 -85.1467 -85.1294 -84.8619 -51.3593 -51.2941 -51.2417 -51.2242
   -51.1396 -51.1178 -51.1131 -51.0753 -51.0590 -50.9932 -50.7635 -50.6981
   -44.8117 -16.8723 -16.8235 -16.7894 -16.2157 -16.0435 -15.8969 -15.7674
   -13.8925 -13.7499 -13.6959 -13.6401 -13.5959 -13.5613 -13.4990 -13.4318
   -13.3631 -13.3456 -13.3338 -13.2061  -4.2002  -3.6835  -3.5695  -3.2332
    -2.1883  -1.9277  -1.8478  -1.6677  -1.4990  -1.4155  -1.3002  -1.1595
    -1.0496  -0.9579  -0.9034  -0.5642  -0.1859  -0.0159   0.1502   0.2699
     0.3892   0.4279   0.5016   0.5771   0.7866   0.8467   0.9678   1.0679
     1.1257   1.1950   1.2909   1.3952   1.4928   1.5893   1.6443   1.7800
     1.8711   1.9759   2.1083   2.1529   2.2807   2.3563   2.4332   2.4534
     2.5804   2.6251   2.7365   2.8305   2.9030   2.9325   3.1012   3.2199
     3.2844   3.3407   3.4034   3.4633   3.6085   3.6774   3.7990   3.8577
     4.0026   4.0378   4.1773   4.3119   4.4484   4.5397   4.7313   4.8421
     9.2600  11.1031  11.5521  11.7287  12.1871  12.8558  12.9843  13.2098
    13.2792  13.3603

     occupation numbers 
     1.0000   1.0000   1.0000   1.0000   1.0000   1.0000   1.0000   1.0000
     1.0000   1.0000   1.0000   1.0000   1.0000   1.0000   1.0000   1.0000
     1.0000   1.0000   1.0000   1.0000   1.0000   1.0000   1.0000   1.0000
     1.0000   1.0000   1.0000   1.0000   1.0000   1.0000   1.0000   1.0000
     1.0000   1.0000   1.0000   1.0000   1.0000   1.0000   1.0000   1.0000
     1.0000   1.0000   1.0000   1.0000   1.0000   1.0000   1.0000   1.0000
     1.0000   1.0000   1.0000   1.0000   1.0000   1.0000   1.0000   1.0000
     1.0000   1.0000   1.0000   1.0000   1.0000   1.0000   1.0000   1.0000
     1.0000   1.0000   1.0000   1.0000   1.0000   1.0000   1.0000   1.0000
     1.0000   1.0000   1.0000   1.0000   1.0000   1.0000   1.0000   1.0000
     1.0000   1.0000   1.0000   1.0000   1.0000   1.0000   1.0000   1.0000
     1.0000   1.0000   1.0000   1.0000   1.0000   1.0000   1.0000   1.0000
     1.0000   1.0000   1.0000   1.0000   1.0000   1.0000   1.0000   1.0000
     0.0000   0.0000   0.0000   0.0000   0.0000   0.0000   0.0000   0.0000
     0.0000   0.0000

          k = 0.0000 0.2391 0.4675 ( 36500 PWs)   bands (ev):

   -85.2377 -85.1467 -85.1294 -84.8619 -51.3593 -51.2941 -51.2417 -51.2242
   -51.1396 -51.1178 -51.1131 -51.0753 -51.0590 -50.9932 -50.7635 -50.6981
   -44.8117 -16.8789 -16.8222 -16.7893 -16.1718 -16.0358 -15.8774 -15.7625
   -13.9073 -13.7818 -13.6982 -13.6493 -13.6176 -13.5807 -13.5057 -13.4353
   -13.3801 -13.3447 -13.3322 -13.2123  -4.1239  -3.6657  -3.5456  -3.2633
    -2.1266  -1.8794  -1.7998  -1.6330  -1.4807  -1.4279  -1.2619  -1.1377
    -1.0146  -0.9791  -0.8756  -0.5867  -0.2015  -0.0141   0.1689   0.2936
     0.3752   0.4167   0.4930   0.6352   0.7923   0.8448   0.9280   1.0458
     1.1242   1.1894   1.2510   1.4147   1.4527   1.5482   1.5729   1.7804
     1.8346   1.9206   2.0273   2.1726   2.2536   2.3249   2.4215   2.4795
     2.5648   2.6042   2.7095   2.8421   2.8911   2.9720   3.0443   3.2107
     3.2771   3.3237   3.3811   3.4875   3.5840   3.6821   3.8137   3.9339
     3.9736   4.0622   4.1768   4.2853   4.4381   4.5249   4.7455   4.8396
     9.6384  11.2700  11.6755  11.8543  12.3259  12.6536  12.8716  13.0475
    13.1355  13.2452

     occupation numbers 
     1.0000   1.0000   1.0000   1.0000   1.0000   1.0000   1.0000   1.0000
     1.0000   1.0000   1.0000   1.0000   1.0000   1.0000   1.0000   1.0000
     1.0000   1.0000   1.0000   1.0000   1.0000   1.0000   1.0000   1.0000
     1.0000   1.0000   1.0000   1.0000   1.0000   1.0000   1.0000   1.0000
     1.0000   1.0000   1.0000   1.0000   1.0000   1.0000   1.0000   1.0000
     1.0000   1.0000   1.0000   1.0000   1.0000   1.0000   1.0000   1.0000
     1.0000   1.0000   1.0000   1.0000   1.0000   1.0000   1.0000   1.0000
     1.0000   1.0000   1.0000   1.0000   1.0000   1.0000   1.0000   1.0000
     1.0000   1.0000   1.0000   1.0000   1.0000   1.0000   1.0000   1.0000
     1.0000   1.0000   1.0000   1.0000   1.0000   1.0000   1.0000   1.0000
     1.0000   1.0000   1.0000   1.0000   1.0000   1.0000   1.0000   1.0000
     1.0000   1.0000   1.0000   1.0000   1.0000   1.0000   1.0000   1.0000
     1.0000   1.0000   1.0000   1.0000   1.0000   1.0000   1.0000   1.0000
     0.0000   0.0000   0.0000   0.0000   0.0000   0.0000   0.0000   0.0000
     0.0000   0.0000

          k = 0.0000 0.2391 0.7012 ( 36515 PWs)   bands (ev):

   -85.2377 -85.1467 -85.1294 -84.8619 -51.3593 -51.2941 -51.2417 -51.2242
   -51.1396 -51.1178 -51.1131 -51.0753 -51.0590 -50.9932 -50.7635 -50.6981
   -44.8117 -16.8897 -16.8200 -16.7861 -16.1146 -16.0283 -15.8567 -15.7593
   -13.9326 -13.8231 -13.6985 -13.6600 -13.6404 -13.6059 -13.5054 -13.4382
   -13.3935 -13.3508 -13.3261 -13.2204  -4.0301  -3.6415  -3.5162  -3.3247
    -2.0740  -1.8097  -1.7178  -1.6111  -1.4613  -1.4164  -1.2458  -1.1158
    -1.0063  -0.9568  -0.8149  -0.6502  -0.1331   0.0151   0.1790   0.3030
     0.3534   0.4085   0.5065   0.6877   0.7740   0.8433   0.9202   1.0348
     1.1086   1.1557   1.2311   1.3303   1.4277   1.4770   1.5673   1.6670
     1.7990   1.8770   2.0175   2.0868   2.2086   2.3115   2.4369   2.4741
     2.5387   2.5810   2.6759   2.7811   2.8801   2.9314   3.0447   3.2129
     3.2417   3.3080   3.4278   3.5442   3.6335   3.6984   3.8281   3.9436
     4.0069   4.0863   4.2096   4.2619   4.3900   4.5551   4.6979   4.8617
    10.1675  11.4918  11.7506  11.9856  12.3172  12.5955  12.7268  12.9113
    12.9352  13.1025

     occupation numbers 
     1.0000   1.0000   1.0000   1.0000   1.0000   1.0000   1.0000   1.0000
     1.0000   1.0000   1.0000   1.0000   1.0000   1.0000   1.0000   1.0000
     1.0000   1.0000   1.0000   1.0000   1.0000   1.0000   1.0000   1.0000
     1.0000   1.0000   1.0000   1.0000   1.0000   1.0000   1.0000   1.0000
     1.0000   1.0000   1.0000   1.0000   1.0000   1.0000   1.0000   1.0000
     1.0000   1.0000   1.0000   1.0000   1.0000   1.0000   1.0000   1.0000
     1.0000   1.0000   1.0000   1.0000   1.0000   1.0000   1.0000   1.0000
     1.0000   1.0000   1.0000   1.0000   1.0000   1.0000   1.0000   1.0000
     1.0000   1.0000   1.0000   1.0000   1.0000   1.0000   1.0000   1.0000
     1.0000   1.0000   1.0000   1.0000   1.0000   1.0000   1.0000   1.0000
     1.0000   1.0000   1.0000   1.0000   1.0000   1.0000   1.0000   1.0000
     1.0000   1.0000   1.0000   1.0000   1.0000   1.0000   1.0000   1.0000
     1.0000   1.0000   1.0000   1.0000   1.0000   1.0000   1.0000   1.0000
     0.0000   0.0000   0.0000   0.0000   0.0000   0.0000   0.0000   0.0000
     0.0000   0.0000

          k = 0.0000 0.2391 0.9349 ( 36488 PWs)   bands (ev):

   -85.2377 -85.1467 -85.1294 -84.8619 -51.3593 -51.2941 -51.2417 -51.2242
   -51.1396 -51.1178 -51.1131 -51.0753 -51.0590 -50.9932 -50.7635 -50.6981
   -44.8117 -16.8980 -16.8188 -16.7827 -16.0722 -16.0201 -15.8491 -15.7578
   -13.9543 -13.8502 -13.6981 -13.6859 -13.6400 -13.6211 -13.5006 -13.4400
   -13.3985 -13.3577 -13.3212 -13.2265  -3.9679  -3.6188  -3.4916  -3.3819
    -2.0507  -1.7836  -1.6481  -1.5837  -1.4455  -1.3916  -1.2315  -1.1334
    -1.0143  -0.9169  -0.7564  -0.7126   0.0046   0.0721   0.1483   0.2400
     0.3540   0.4606   0.5667   0.6578   0.7655   0.8538   0.9141   1.0177
     1.0567   1.0784   1.1806   1.2514   1.3810   1.4775   1.5990   1.6370
     1.7982   1.8514   1.9796   2.0507   2.1645   2.2523   2.4007   2.4861
     2.5252   2.5844   2.6454   2.7471   2.8397   2.9335   3.0392   3.1572
     3.2621   3.3177   3.4100   3.6138   3.6943   3.7232   3.8506   3.9697
     4.0154   4.1271   4.2271   4.2661   4.3447   4.5890   4.6402   4.8703
    10.7517  11.3691  11.7415  12.0929  12.2976  12.5211  12.7060  12.7986
    12.9163  13.0648

     occupation numbers 
     1.0000   1.0000   1.0000   1.0000   1.0000   1.0000   1.0000   1.0000
     1.0000   1.0000   1.0000   1.0000   1.0000   1.0000   1.0000   1.0000
     1.0000   1.0000   1.0000   1.0000   1.0000   1.0000   1.0000   1.0000
     1.0000   1.0000   1.0000   1.0000   1.0000   1.0000   1.0000   1.0000
     1.0000   1.0000   1.0000   1.0000   1.0000   1.0000   1.0000   1.0000
     1.0000   1.0000   1.0000   1.0000   1.0000   1.0000   1.0000   1.0000
     1.0000   1.0000   1.0000   1.0000   1.0000   1.0000   1.0000   1.0000
     1.0000   1.0000   1.0000   1.0000   1.0000   1.0000   1.0000   1.0000
     1.0000   1.0000   1.0000   1.0000   1.0000   1.0000   1.0000   1.0000
     1.0000   1.0000   1.0000   1.0000   1.0000   1.0000   1.0000   1.0000
     1.0000   1.0000   1.0000   1.0000   1.0000   1.0000   1.0000   1.0000
     1.0000   1.0000   1.0000   1.0000   1.0000   1.0000   1.0000   1.0000
     1.0000   1.0000   1.0000   1.0000   1.0000   1.0000   1.0000   1.0000
     0.0000   0.0000   0.0000   0.0000   0.0000   0.0000   0.0000   0.0000
     0.0000   0.0000

          k = 0.0000 0.4781 0.0000 ( 36507 PWs)   bands (ev):

   -85.2377 -85.1467 -85.1294 -84.8619 -51.3593 -51.2941 -51.2417 -51.2242
   -51.1396 -51.1178 -51.1131 -51.0753 -51.0590 -50.9932 -50.7635 -50.6981
   -44.8117 -16.8742 -16.8241 -16.7881 -16.1853 -16.0458 -15.9080 -15.8022
   -13.9107 -13.7436 -13.6895 -13.6499 -13.5972 -13.5556 -13.5109 -13.4239
   -13.3655 -13.3342 -13.3012 -13.2038  -4.1588  -3.7081  -3.5541  -3.2504
    -2.1580  -1.9366  -1.8515  -1.6921  -1.4563  -1.3978  -1.2929  -1.1042
    -1.0823  -0.9281  -0.8751  -0.5703  -0.1700  -0.0449   0.1167   0.2729
     0.3047   0.4009   0.5019   0.5735   0.6899   0.7786   1.0146   1.1220
     1.1828   1.2207   1.3264   1.3586   1.4475   1.5706   1.6013   1.7922
     1.8831   1.9688   2.1058   2.1683   2.3038   2.3220   2.4355   2.4778
     2.5771   2.6348   2.6633   2.7573   2.8990   2.9340   3.0568   3.1897
     3.2553   3.3189   3.4065   3.5466   3.5945   3.7397   3.7750   3.8556
     3.9943   4.0410   4.1461   4.2936   4.3930   4.6188   4.7525   4.8763
     9.5394  11.2402  11.3641  11.7944  12.1803  12.8181  13.0271  13.2002
    13.3694  13.4311

     occupation numbers 
     1.0000   1.0000   1.0000   1.0000   1.0000   1.0000   1.0000   1.0000
     1.0000   1.0000   1.0000   1.0000   1.0000   1.0000   1.0000   1.0000
     1.0000   1.0000   1.0000   1.0000   1.0000   1.0000   1.0000   1.0000
[...]
     atom   14 type  3   force =    -0.00055831   -0.00053947   -0.00059895
     atom   15 type  3   force =    -0.00091303   -0.00040065   -0.00103171
     atom   16 type  3   force =     0.00068000    0.00107569    0.00126535
     atom   17 type  3   force =     0.00045267    0.00202985   -0.00211461
     atom   18 type  3   force =     0.00311809   -0.00177869   -0.00116263
     atom   19 type  3   force =    -0.00000194   -0.00125051    0.00403557
     atom   20 type  3   force =     0.00018419    0.00087893   -0.00236727
     atom   21 type  3   force =     0.00243553    0.00282605   -0.00052477
     atom   22 type  3   force =     0.00024463    0.00019052   -0.00165696
     atom   23 type  3   force =     0.00077304    0.00048194   -0.00176582
     atom   24 type  3   force =     0.00135649    0.00039934    0.00028931
     atom   25 type  3   force =    -0.00275720   -0.00064417    0.00091322
     The non-local contrib.  to forces
     atom    1 type  2   force =    -0.05439781    0.02218036    0.02171443
     atom    2 type  1   force =    -0.15264352    0.10795318    0.09455149
     atom    3 type  1   force =    -0.09490605    0.19216475   -0.01763188
     atom    4 type  1   force =     0.03547947   -0.13601604   -0.04811638
     atom    5 type  1   force =     0.11951290   -0.08911269   -0.14320786
     atom    6 type  4   force =     0.00725825   -0.01981908   -0.03221851
     atom    7 type  4   force =     0.01994250   -0.00013275    0.04520998
     atom    8 type  4   force =    -0.00052913   -0.00402755    0.02382623
     atom    9 type  4   force =    -0.03504543    0.01439020    0.03597555
     atom   10 type  3   force =    -0.05944289   -0.01360860   -1.41996646
     atom   11 type  3   force =     0.28692735   -0.15665203   -1.24639026
     atom   12 type  3   force =    -0.21807556    0.08218119    1.44918036
     atom   13 type  3   force =     0.27707013   -0.07198961    1.45435776
     atom   14 type  3   force =     1.20130451   -0.50538568   -0.59685169
     atom   15 type  3   force =    -1.33401604   -0.20942714   -0.49158499
     atom   16 type  3   force =    -1.28365200    0.52784656    0.24344371
     atom   17 type  3   force =     1.27519612    0.06879701    0.42005612
     atom   18 type  3   force =    -0.60109954   -0.83637355    0.85021540
     atom   19 type  3   force =     0.49643271    1.65146649    0.61427377
     atom   20 type  3   force =     0.63398988   -1.11303435   -0.71916571
     atom   21 type  3   force =    -0.37991214    1.08186670   -0.91766967
     atom   22 type  3   force =     0.48724742    1.03907489   -0.79717245
     atom   23 type  3   force =    -0.56024240   -1.23983273   -0.64588164
     atom   24 type  3   force =    -0.27764807    1.02873681    0.71358510
     atom   25 type  3   force =    -0.04461970   -1.28397856    1.26052899
     The ionic contribution  to forces
     atom    1 type  2   force =    -1.80280202   -0.70435147    1.24990390
     atom    2 type  1   force =     3.82947727    9.89183893   -0.57565498
     atom    3 type  1   force =     0.71487401   -1.50008398   -0.46161677
     atom    4 type  1   force =    -6.93339004   -0.98140224    2.82022626
     atom    5 type  1   force =     0.28815936   -2.26357617   -1.20082119
     atom    6 type  4   force =    -1.64312878   -0.56833125    0.67813818
     atom    7 type  4   force =     4.56737573   -3.45978502   -0.43316340
     atom    8 type  4   force =     1.31234050    1.44384195   -1.07961023
     atom    9 type  4   force =    -3.31327056    0.79231431    0.34664296
     atom   10 type  3   force =    -4.38306302    0.51524068    2.13590235
     atom   11 type  3   force =     6.77533256   -4.95973712    2.43354994
     atom   12 type  3   force =     6.21918279    1.07751728   -1.95207131
     atom   13 type  3   force =    -9.65884801    0.54010509   -2.13818094
     atom   14 type  3   force =     2.08888650    6.41711619    5.93161269
     atom   15 type  3   force =     0.18054523    3.36630565    4.21614006
     atom   16 type  3   force =    -2.80637137   -3.63977054   -5.03269758
     atom   17 type  3   force =     0.38809483   -2.02583374   -4.38077710
     atom   18 type  3   force =     1.66120205   -1.49871382   -3.49548823
     atom   19 type  3   force =     6.70059704  -10.45761084    1.23538760
     atom   20 type  3   force =     1.64060473    3.69279759    1.74591023
     atom   21 type  3   force =    -4.27215651   -1.71293413    5.24937920
     atom   22 type  3   force =     0.42745790   -2.75916697    2.32232584
     atom   23 type  3   force =    -4.57843980    4.91742064    1.05015840
     atom   24 type  3   force =    -5.64472000   -0.13404867   -1.10516878
     atom   25 type  3   force =     8.24205963    4.01084764   -9.56002712
     The local contribution  to forces
     atom    1 type  2   force =     1.83929689    0.67852990   -1.26742725
     atom    2 type  1   force =    -3.67759419   -9.99983434    0.48355504
     atom    3 type  1   force =    -0.61716698    1.30953290    0.48265488
     atom    4 type  1   force =     6.89875801    1.11617161   -2.77302261
     atom    5 type  1   force =    -0.40724422    2.35089084    1.34264379
     atom    6 type  4   force =     1.63790111    0.58751504   -0.64903482
     atom    7 type  4   force =    -4.58647150    3.45775045    0.39348210
     atom    8 type  4   force =    -1.30969138   -1.43949553    1.05639476
     atom    9 type  4   force =     3.34895813   -0.80587851   -0.37911760
     atom   10 type  3   force =     4.44257896   -0.50106188   -0.72729477
     atom   11 type  3   force =    -7.05835924    5.11646884   -1.19607339
     atom   12 type  3   force =    -6.00318703   -1.15906762    0.51271099
     atom   13 type  3   force =     9.38596578   -0.46873634    0.69479704
     atom   14 type  3   force =    -3.28043849   -5.91718359   -5.34114697
     atom   15 type  3   force =     1.14126935   -3.15917908   -3.73044983
     atom   16 type  3   force =     4.07987709    3.11784293    4.79312482
     atom   17 type  3   force =    -1.65213589    1.95970098    3.96271707
     atom   18 type  3   force =    -1.06222599    2.32646827    2.65203285
     atom   19 type  3   force =    -7.19292807    8.81996534   -1.84033837
     atom   20 type  3   force =    -2.26888219   -2.58853136   -1.03563370
     atom   21 type  3   force =     4.65130637    0.64317074   -4.34077230
     atom   22 type  3   force =    -0.91030687    1.72923321   -1.53420044
     atom   23 type  3   force =     5.13463391   -3.68814183   -0.41174426
     atom   24 type  3   force =     5.92152841   -0.88524837    0.39829768
     atom   25 type  3   force =    -8.20094325   -2.73882401    8.31216304
     The core correction contribution to forces
     atom    1 type  2   force =     0.00000000    0.00000000    0.00000000
     atom    2 type  1   force =     0.00059706    0.00023640   -0.00007390
     atom    3 type  1   force =     0.00075900   -0.00291387   -0.00165723
     atom    4 type  1   force =     0.00033411    0.00117083   -0.00062846
     atom    5 type  1   force =    -0.00092989    0.00091879    0.00030881
     atom    6 type  4   force =    -0.00079638    0.00200365    0.00136932
     atom    7 type  4   force =    -0.00244397    0.00100125   -0.00301683
     atom    8 type  4   force =     0.00012048   -0.00031295   -0.00127196
     atom    9 type  4   force =     0.00306155   -0.00105285   -0.00301019
     atom   10 type  3   force =    -0.00021585    0.00031631    0.01237973
     atom   11 type  3   force =    -0.00211478    0.00154637    0.01078939
     atom   12 type  3   force =     0.00255714   -0.00075657   -0.01256499
     atom   13 type  3   force =    -0.00307345    0.00069011   -0.01269925
     atom   14 type  3   force =    -0.01030868    0.00491379    0.00578756
     atom   15 type  3   force =     0.01128705    0.00190007    0.00486366
     atom   16 type  3   force =     0.01082473   -0.00484335   -0.00260637
     atom   17 type  3   force =    -0.01070752   -0.00063377   -0.00410894
     atom   18 type  3   force =     0.00524096    0.00684050   -0.00792229
     atom   19 type  3   force =    -0.00410285   -0.01507116   -0.00528681
     atom   20 type  3   force =    -0.00552860    0.00965201    0.00651977
     atom   21 type  3   force =     0.00319829   -0.00927249    0.00854054
     atom   22 type  3   force =    -0.00415454   -0.00895506    0.00738797
     atom   23 type  3   force =     0.00482276    0.01103189    0.00570505
     atom   24 type  3   force =     0.00219571   -0.00904000   -0.00642424
     atom   25 type  3   force =     0.00074752    0.01131119   -0.01175132
     The Hubbard contrib.    to forces
     atom    1 type  2   force =     0.00000000    0.00000000    0.00000000
     atom    2 type  1   force =     0.00000000    0.00000000    0.00000000
     atom    3 type  1   force =     0.00000000    0.00000000    0.00000000
     atom    4 type  1   force =     0.00000000    0.00000000    0.00000000
     atom    5 type  1   force =     0.00000000    0.00000000    0.00000000
     atom    6 type  4   force =     0.00000000    0.00000000    0.00000000
     atom    7 type  4   force =     0.00000000    0.00000000    0.00000000
     atom    8 type  4   force =     0.00000000    0.00000000    0.00000000
     atom    9 type  4   force =     0.00000000    0.00000000    0.00000000
     atom   10 type  3   force =     0.00000000    0.00000000    0.00000000
     atom   11 type  3   force =     0.00000000    0.00000000    0.00000000
     atom   12 type  3   force =     0.00000000    0.00000000    0.00000000
     atom   13 type  3   force =     0.00000000    0.00000000    0.00000000
     atom   14 type  3   force =     0.00000000    0.00000000    0.00000000
     atom   15 type  3   force =     0.00000000    0.00000000    0.00000000
     atom   16 type  3   force =     0.00000000    0.00000000    0.00000000
     atom   17 type  3   force =     0.00000000    0.00000000    0.00000000
     atom   18 type  3   force =     0.00000000    0.00000000    0.00000000
     atom   19 type  3   force =     0.00000000    0.00000000    0.00000000
     atom   20 type  3   force =     0.00000000    0.00000000    0.00000000
     atom   21 type  3   force =     0.00000000    0.00000000    0.00000000
     atom   22 type  3   force =     0.00000000    0.00000000    0.00000000
     atom   23 type  3   force =     0.00000000    0.00000000    0.00000000
     atom   24 type  3   force =     0.00000000    0.00000000    0.00000000
     atom   25 type  3   force =     0.00000000    0.00000000    0.00000000
     The SCF correction term to forces
     atom    1 type  2   force =     0.00000198    0.00000080    0.00000043
     atom    2 type  1   force =    -0.00000371   -0.00000008    0.00000042
     atom    3 type  1   force =    -0.00000077   -0.00000030   -0.00000023
     atom    4 type  1   force =     0.00000038   -0.00000016    0.00000041
     atom    5 type  1   force =     0.00000198    0.00000006   -0.00000023
     atom    6 type  4   force =     0.00000105    0.00000001   -0.00000020
     atom    7 type  4   force =    -0.00000067   -0.00000030    0.00000010
     atom    8 type  4   force =     0.00000078    0.00000004    0.00000014
     atom    9 type  4   force =    -0.00000102   -0.00000021   -0.00000041
     atom   10 type  3   force =     0.00000086   -0.00000013    0.00000023
     atom   11 type  3   force =    -0.00000110    0.00000004    0.00000058
     atom   12 type  3   force =    -0.00000072    0.00000027   -0.00000176
     atom   13 type  3   force =    -0.00000368   -0.00000011    0.00000260
     atom   14 type  3   force =    -0.00000224    0.00000013   -0.00000018
     atom   15 type  3   force =     0.00000130    0.00000015   -0.00000025
     atom   16 type  3   force =     0.00000146    0.00000039    0.00000112
     atom   17 type  3   force =     0.00000505   -0.00000033   -0.00000142
     atom   18 type  3   force =     0.00000052    0.00000022   -0.00000000
     atom   19 type  3   force =    -0.00000087   -0.00000003   -0.00000026
     atom   20 type  3   force =     0.00000029   -0.00000464    0.00000250
     atom   21 type  3   force =    -0.00000057   -0.00000447   -0.00000219
     atom   22 type  3   force =     0.00000063    0.00000475    0.00000246
     atom   23 type  3   force =    -0.00000151    0.00000427   -0.00000301
     atom   24 type  3   force =     0.00000036   -0.00000012   -0.00000010
     atom   25 type  3   force =    -0.00000149   -0.00000012   -0.00000002

     Total force =     0.022916     Total SCF correction =     0.000014


     Computing stress (Cartesian axis) and pressure


     negative rho (up, down):  0.000E+00 9.528E-04
          total   stress  (Ry/bohr**3)                   (kbar)     P=      -12.67
  -0.00027896   0.00000339   0.00003854          -41.04        0.50        5.67
   0.00000339  -0.00003593   0.00007432            0.50       -5.29       10.93
   0.00003854   0.00007432   0.00005641            5.67       10.93        8.30

     kinetic stress (kbar)  26430.58     34.53    -10.86
                               34.53  26605.58      6.37
                              -10.86      6.37  26514.07

     local   stress (kbar)  -5136.07   2425.93   -156.00
                             2425.93 -12976.58    779.93
                             -156.00    779.93  -8184.38

     nonloc. stress (kbar)  -6736.26      2.47     -6.63
                                2.47  -6702.08      5.43
                               -6.63      5.43  -6717.61

     hartree stress (kbar)  12905.76   -911.42    -18.08
                             -911.42  17126.82   -347.55
                              -18.08   -347.55  14816.46

     exc-cor stress (kbar)  -2799.59     -2.08      0.26
                               -2.08  -2805.59      0.07
                                0.26      0.07  -2804.36

     corecor stress (kbar)  -3116.04      0.61      0.38
                                0.61  -3114.54     -0.91
                                0.38     -0.91  -3115.50

     ewald   stress (kbar) -21589.42  -1549.54    196.59
                            -1549.54 -18138.90   -432.41
                              196.59   -432.41 -20500.38

     hubbard stress (kbar)      0.00      0.00      0.00
                                0.00      0.00      0.00
                                0.00      0.00      0.00

     DFT-D   stress (kbar)      0.00      0.00      0.00
                                0.00      0.00      0.00
                                0.00      0.00      0.00

     XDM     stress (kbar)      0.00      0.00      0.00
                                0.00      0.00      0.00
                                0.00      0.00      0.00

     dft-nl  stress (kbar)      0.00      0.00      0.00
                                0.00      0.00      0.00
                                0.00      0.00      0.00

     TS-vdW  stress (kbar)      0.00      0.00      0.00
                                0.00      0.00      0.00
                                0.00      0.00      0.00



     init_run     :     83.09s CPU     84.86s WALL (       1 calls)
     electrons    :   7297.25s CPU   7407.34s WALL (       1 calls)
     forces       :     39.26s CPU     40.07s WALL (       1 calls)
     stress       :    445.87s CPU    447.61s WALL (       1 calls)

     Called by init_run:
     wfcinit      :     76.32s CPU     77.82s WALL (       1 calls)
     wfcinit:atom :      1.80s CPU      1.83s WALL (     316 calls)
     wfcinit:wfcr :     68.14s CPU     69.56s WALL (     316 calls)
     potinit      :      2.40s CPU      2.47s WALL (       1 calls)
     hinit0       :      2.42s CPU      2.47s WALL (       1 calls)

     Called by electrons:
     c_bands      :   6310.60s CPU   6392.07s WALL (      36 calls)
     sum_band     :    896.44s CPU    919.56s WALL (      36 calls)
     v_of_rho     :     19.55s CPU     20.23s WALL (      37 calls)
     v_h          :      0.88s CPU      0.93s WALL (      37 calls)
     v_xc         :     19.69s CPU     20.34s WALL (      39 calls)
     newd         :     49.12s CPU     53.82s WALL (      37 calls)
     PAW_pot      :     17.77s CPU     17.84s WALL (      37 calls)
     mix_rho      :      3.99s CPU      4.16s WALL (      36 calls)

     Called by c_bands:
     init_us_2    :    145.06s CPU    147.37s WALL (   23700 calls)
     cegterg      :   6029.04s CPU   6107.51s WALL (   11376 calls)

     Called by sum_band:
     sum_band:wei :      0.31s CPU      0.31s WALL (      36 calls)
     sum_band:loo :    805.05s CPU    819.19s WALL (      36 calls)
     sum_band:buf :     34.86s CPU     35.28s WALL (   11376 calls)
     sum_band:ini :     71.94s CPU     73.00s WALL (   11376 calls)
     sum_band:cal :    208.12s CPU    212.99s WALL (   11376 calls)
     sum_band:bec :      1.64s CPU      1.67s WALL (   11376 calls)
     addusdens    :     88.13s CPU     96.99s WALL (      36 calls)
     addusd:skk   :      0.50s CPU      0.52s WALL (     108 calls)
     addusd:dgemm :     21.67s CPU     29.84s WALL (     216 calls)
     addusd:qvan2 :     65.01s CPU     65.47s WALL (     216 calls)

     Called by *egterg:
     cdiaghg      :    304.18s CPU    309.24s WALL (   40038 calls)
     cegterg:over :    450.94s CPU    458.44s WALL (   28662 calls)
     cegterg:upda :    377.00s CPU    379.92s WALL (   28662 calls)
     cegterg:last :    679.18s CPU    684.27s WALL (   20480 calls)
     h_psi        :   3243.80s CPU   3293.89s WALL (   40354 calls)
     s_psi        :    677.42s CPU    682.11s WALL (   40354 calls)
     g_psi        :     28.06s CPU     28.46s WALL (   28662 calls)

     Called by h_psi:
     h_psi:calbec :    529.13s CPU    540.48s WALL (   40354 calls)
     vloc_psi     :   1916.80s CPU   1949.08s WALL (   40354 calls)
     add_vuspsi   :    721.45s CPU    726.84s WALL (   40354 calls)

     General routines
     calbec       :    773.59s CPU    790.56s WALL (   53310 calls)
     fft          :     15.46s CPU     16.47s WALL (     963 calls)
     ffts         :      0.14s CPU      0.15s WALL (     146 calls)
     fftw         :   2050.95s CPU   2084.90s WALL ( 7233252 calls)
     interpolate  :      1.44s CPU      1.51s WALL (      74 calls)

     Parallel routines
     fft_scatt_xy :    296.41s CPU    301.33s WALL ( 7234361 calls)
     fft_scatt_yz :    520.69s CPU    530.90s WALL ( 7234361 calls)

     PAW routines
     PAW_pot      :     17.77s CPU     17.84s WALL (      37 calls)

     PWSCF        :      2h11m CPU      2h13m WALL


   This run was terminated on:  17:51: 6  13Mar2023            

=------------------------------------------------------------------------------=
   JOB DONE.
=------------------------------------------------------------------------------=
Note: The following floating-point exceptions are signalling: IEEE_UNDERFLOW_FLAG IEEE_DENORMAL
Note: The following floating-point exceptions are signalling: IEEE_DENORMAL
Note: The following floating-point exceptions are signalling: IEEE_DENORMAL
Note: The following floating-point exceptions are signalling: IEEE_DENORMAL
Note: The following floating-point exceptions are signalling: IEEE_DENORMAL
Note: The following floating-point exceptions are signalling: IEEE_DENORMAL
Note: The following floating-point exceptions are signalling: IEEE_INVALID_FLAG IEEE_DENORMAL
Note: The following floating-point exceptions are signalling: IEEE_DENORMAL
Note: The following floating-point exceptions are signalling: IEEE_DENORMAL
Note: The following floating-point exceptions are signalling: IEEE_DENORMAL
Note: The following floating-point exceptions are signalling: IEEE_DENORMAL
Note: The following floating-point exceptions are signalling: IEEE_DENORMAL
Note: The following floating-point exceptions are signalling: IEEE_DENORMAL
Note: The following floating-point exceptions are signalling: IEEE_DENORMAL
