2.5539392 0 0 -1.2769688036250000e+00 2.211776686708 0 0.0000000000000000e+00 0.0000000000000000e+00 4.226855
2.45332882570307 0 0 9.6948871860868913e-01 3.15567953438112 0 0.0000000000000000e+00 0.0000000000000000e+00 3.12617218588828
3.2324625865044 0 0 8.8555882892991489e-01 2.88248828408759 0 0.0000000000000000e+00 0.0000000000000000e+00 3.1705333575016
2.62239628864709 0 0 8.7488623523743947e-01 2.84774906036311 0 0.0000000000000000e+00 0.0000000000000000e+00 3.36270131760679
2.5539392 0 0 -1.2769688036250000e+00 2.211776686708 0 0.0000000000000000e+00 0.0000000000000000e+00 4.226855