-0.00140221 1.52005 2.13758 1.31877 0.699152 4.18276 -0.0205624 1.49424 0.539775 1.2941 0.722024 2.6007
0.382437 0.3404 2.42207 3.32545 1.85614 0.803486 0.104665 0.395564 0.688701 3.30187 1.84256 2.28972
-0.280717 0.380804 2.32488 3.74748 1.80651 0.695529 -0.0620865 0.429001 0.736496 3.51228 1.81497 2.37157
-0.0951294 0.38026 2.4599 0.846667 1.82642 0.700127 0.270304 0.436458 0.564101 3.22735 1.79241 2.31197
0.0460508 1.46364 2.14653 1.26253 0.740837 4.17831 -0.0322338 1.43309 0.575844 1.30165 0.727567 2.6672