-746.056993023739
-737.521911742891
-738.479229777797
-738.384565911731
-746.086680084092