0.249806711348288 -1.63780369413285 -1.95565487257855 -0.962302994871804 1.07699290562801 1.43035254303646 0.944270572172186 -0.84630156507103 -1.26828391037894 -0.23177428864867 1.40711235357588 1.79358623992102
-0.572942532499733 0.268492451023449 -1.23894738136419 -0.588085036740041 -0.0295699850611009 -0.105919111076273 -0.551190496779578 -0.0957534886524125 1.56686288082156 1.71221832312954 -0.143168977309935 -0.221996388381094
0.533495402640336 0.680371137461648 -0.71752741558862 -0.558844152713452 -0.0332201783321705 -0.429479164030019 1.23549490582401 -1.90301644765924 1.16480066117842 -1.2101461557509 1.25586548852977 -0.0177938244495962
1.5138776142651 1.76030512647543 2.43609764579442 -0.517704723628149 -0.722288067740985 2.42819922096613 -0.451216801579914 -1.05878410534271 -2.06267904322227 -0.544956089057039 0.020767046608267 -2.8016175664281
-0.812396445210781 -0.108687673529107 -0.998130527571933 -0.112885511490419 -0.683716140945244 3.1522978586173 0.7182444958896 0.776547058145079 -1.77761121290747 0.207037460811601 0.0158567563292723 -0.376556375248082