
     Program PWSCF v.6.7MaX starts on 12Jan2023 at 20:42:12 

     This program is part of the open-source Quantum ESPRESSO suite
     for quantum simulation of materials; please cite
         "P. Giannozzi et al., J. Phys.:Condens. Matter 21 395502 (2009);
         "P. Giannozzi et al., J. Phys.:Condens. Matter 29 465901 (2017);
          URL http://www.quantum-espresso.org", 
     in publications or presentations arising from this work. More details at
     http://www.quantum-espresso.org/quote

     Parallel version (MPI), running on    12 processors

     MPI processes distributed on     1 nodes
     R & G space division:  proc/nbgrp/npool/nimage =      12
     Reading input from scale_1da-02.in

     Current dimensions of program PWSCF are:
     Max number of different atomic species (ntypx) = 10
     Max number of k-points (npk) =  40000
     Max angular momentum in pseudopotentials (lmaxx) =  3
     Message from routine read_pp_mesh:
     mesh size missing, using the one in header
     file Fe.pbe-spn-kjpaw_psl.0.2.1.UPF: wavefunction(s)  3D renormalized
     file O.pbe-n-kjpaw_psl.0.1.UPF: wavefunction(s)  2P renormalized

     Subspace diagonalization in iterative solution of the eigenvalue problem:
     a serial algorithm will be used


     Parallelization info
     --------------------
     sticks:   dense  smooth     PW     G-vecs:    dense   smooth      PW
     Min        1629     602    163               106121    23921    3367
     Max        1630     604    164               106123    23922    3369
     Sum       19549    7233   1959              1273469   287059   40409



     bravais-lattice index     =            0
     lattice parameter (alat)  =      19.3373  a.u.
     unit-cell volume          =    2124.3518 (a.u.)^3
     number of atoms/cell      =           25
     number of atomic types    =            4
     number of electrons       =       189.00
     number of Kohn-Sham states=          114
     kinetic-energy cutoff     =     100.0000  Ry
     charge density cutoff     =    1080.0000  Ry
     scf convergence threshold =      2.0E-10
     mixing beta               =       0.4000
     number of iterations used =            8  plain     mixing
     Exchange-correlation= PBE
                           (   1   4   3   4   0   0   0)

     celldm(1)=  19.337306  celldm(2)=   0.000000  celldm(3)=   0.000000
     celldm(4)=   0.000000  celldm(5)=   0.000000  celldm(6)=   0.000000

     crystal axes: (cart. coord. in units of alat)
               a(1) = (   1.000000   0.000000   0.000000 )  
               a(2) = (   0.000000   0.607719   0.000000 )  
               a(3) = (   0.000000   0.000000   0.483433 )  

     reciprocal axes: (cart. coord. in units 2 pi/alat)
               b(1) = (  1.000000  0.000000  0.000000 )  
               b(2) = (  0.000000  1.645499  0.000000 )  
               b(3) = (  0.000000  0.000000  2.068540 )  


     PseudoPot. # 1 for Fe read from file:
     /opt/QEpot/SSSP_precision_pseudos/Fe.pbe-spn-kjpaw_psl.0.2.1.UPF
     MD5 check sum: e86618425769142926afa95317d90200
     Pseudo is Projector augmented-wave + core cor, Zval = 16.0
     Generated using "atomic" code by A. Dal Corso  v.5.0.99 svn rev. 10869
     Shape of augmentation charge: PSQ
     Using radial grid of 1191 points,  6 beta functions with: 
                l(1) =   0
                l(2) =   0
                l(3) =   1
                l(4) =   1
                l(5) =   2
                l(6) =   2
     Q(r) pseudized with 0 coefficients 


     PseudoPot. # 2 for Na read from file:
     /opt/QEpot/SSSP_precision_pseudos/Na_ONCV_PBE-1.0.oncvpsp.upf
     MD5 check sum: 24a298df0a6742ae313db96548fdb2a4
     Pseudo is Norm-conserving, Zval =  9.0
     Generated using ONCVPSP code by D. R. Hamann
     Using radial grid of 1992 points,  4 beta functions with: 
                l(1) =   0
                l(2) =   0
                l(3) =   1
                l(4) =   1

     PseudoPot. # 3 for O  read from file:
     /opt/QEpot/SSSP_precision_pseudos/O.pbe-n-kjpaw_psl.0.1.UPF
     MD5 check sum: 0234752ac141de4415c5fc33072bef88
     Pseudo is Projector augmented-wave + core cor, Zval =  6.0
     Generated using "atomic" code by A. Dal Corso  v.5.0.99 svn rev. 10869
     Shape of augmentation charge: BESSEL
     Using radial grid of 1095 points,  4 beta functions with: 
                l(1) =   0
                l(2) =   0
                l(3) =   1
                l(4) =   1
     Q(r) pseudized with 0 coefficients 


     PseudoPot. # 4 for P  read from file:
     /opt/QEpot/SSSP_precision_pseudos/P.pbe-n-rrkjus_psl.1.0.0.UPF
     MD5 check sum: 8b930f418f0a4573dca56cd030ffe088
     Pseudo is Ultrasoft + core correction, Zval =  5.0
     Generated using "atomic" code by A. Dal Corso  v.5.1
     Using radial grid of 1147 points,  6 beta functions with: 
                l(1) =   0
                l(2) =   0
                l(3) =   1
                l(4) =   1
                l(5) =   2
                l(6) =   2
     Q(r) pseudized with 0 coefficients 


     atomic species   valence    mass     pseudopotential
        Fe            16.00    55.84500     Fe( 1.00)
        Na             9.00    22.98977     Na( 1.00)
        O              6.00    15.99940     O ( 1.00)
        P              5.00    30.97376     P ( 1.00)

     Starting magnetic structure 
     atomic species   magnetization
        Fe           0.312
        Na           0.000
        O            0.000
        P            0.000

     No symmetry found


                                    s                        frac. trans.

      isym =  1     identity                                     

 cryst.   s( 1) = (     1          0          0      )
                  (     0          1          0      )
                  (     0          0          1      )

 cart.    s( 1) = (  1.0000000  0.0000000  0.0000000 )
                  (  0.0000000  1.0000000  0.0000000 )
                  (  0.0000000  0.0000000  1.0000000 )


   Cartesian axes

     site n.     atom                  positions (alat units)
         1           Na  tau(   1) = (   0.9908320   0.5447139   0.3977916  )
         2           Fe  tau(   2) = (   0.2986640   0.4678613   0.4146006  )
         3           Fe  tau(   3) = (   0.2176140   0.1840536   0.2329715  )
         4           Fe  tau(   4) = (   0.6993130   0.1400336   0.0580216  )
         5           Fe  tau(   5) = (   0.7827270   0.4049265   0.2269426  )
         6           P   tau(   6) = (   0.0964330   0.4259499   0.1496340  )
         7           P   tau(   7) = (   0.3931680   0.1528753   0.4448180  )
         8           P   tau(   8) = (   0.9083370   0.1966073   0.3319665  )
         9           P   tau(   9) = (   0.6077760   0.4556072   0.0167872  )
        10           O   tau(  10) = (   0.1605150   0.4418959   0.2853442  )
        11           O   tau(  11) = (   0.3515630   0.1505842   0.1054309  )
        12           O   tau(  12) = (   0.8284030   0.2011767   0.2011027  )
        13           O   tau(  13) = (   0.6540840   0.4554121   0.3576430  )
        14           O   tau(  14) = (   0.4610620   0.4670761   0.0275885  )
        15           O   tau(  15) = (   0.0466520   0.1439400   0.3157792  )
        16           O   tau(  16) = (   0.5400580   0.1436173   0.4325301  )
        17           O   tau(  17) = (   0.9523340   0.4693556   0.1561275  )
        18           O   tau(  18) = (   0.1650350   0.5209977   0.0530838  )
        19           O   tau(  19) = (   0.3242430   0.0440031   0.3602134  )
        20           O   tau(  20) = (   0.8958430   0.3389167   0.3815435  )
        21           O   tau(  21) = (   0.6568690   0.3303297   0.0931850  )
        22           O   tau(  22) = (   0.8385610   0.0987129   0.4246309  )
        23           O   tau(  23) = (   0.6777090   0.5620692   0.1031626  )
        24           O   tau(  24) = (   0.1168020   0.2837985   0.1028532  )
        25           O   tau(  25) = (   0.3354730   0.2758623   0.3693083  )

   Crystallographic axes

     site n.     atom                  positions (cryst. coord.)
         1           Na  tau(   1) = (  0.9908320  0.8963260  0.8228480  )
         2           Fe  tau(   2) = (  0.2986640  0.7698650  0.8576180  )
         3           Fe  tau(   3) = (  0.2176140  0.3028600  0.4819110  )
         4           Fe  tau(   4) = (  0.6993130  0.2304250  0.1200200  )
         5           Fe  tau(   5) = (  0.7827270  0.6663060  0.4694400  )
         6           P   tau(   6) = (  0.0964330  0.7009000  0.3095240  )
         7           P   tau(   7) = (  0.3931680  0.2515560  0.9201240  )
         8           P   tau(   8) = (  0.9083370  0.3235170  0.6866860  )
         9           P   tau(   9) = (  0.6077760  0.7497010  0.0347250  )
        10           O   tau(  10) = (  0.1605150  0.7271390  0.5902460  )
        11           O   tau(  11) = (  0.3515630  0.2477860  0.2180880  )
        12           O   tau(  12) = (  0.8284030  0.3310360  0.4159890  )
        13           O   tau(  13) = (  0.6540840  0.7493800  0.7397990  )
        14           O   tau(  14) = (  0.4610620  0.7685730  0.0570680  )
        15           O   tau(  15) = (  0.0466520  0.2368530  0.6532020  )
        16           O   tau(  16) = (  0.5400580  0.2363220  0.8947060  )
        17           O   tau(  17) = (  0.9523340  0.7723240  0.3229560  )
        18           O   tau(  18) = (  0.1650350  0.8573010  0.1098060  )
        19           O   tau(  19) = (  0.3242430  0.0724070  0.7451160  )
        20           O   tau(  20) = (  0.8958430  0.5576870  0.7892380  )
        21           O   tau(  21) = (  0.6568690  0.5435570  0.1927570  )
        22           O   tau(  22) = (  0.8385610  0.1624320  0.8783660  )
        23           O   tau(  23) = (  0.6777090  0.9248840  0.2133960  )
        24           O   tau(  24) = (  0.1168020  0.4669900  0.2127560  )
        25           O   tau(  25) = (  0.3354730  0.4539310  0.7639290  )

     number of k points=   158  Marzari-Vanderbilt smearing, width (Ry)=  0.0073
                       cart. coord. in units 2pi/alat
        k(    1) = (   0.0000000   0.0000000   0.0000000), wk =   0.0031746
        k(    2) = (   0.0000000   0.0000000   0.2298378), wk =   0.0063492
        k(    3) = (   0.0000000   0.0000000   0.4596756), wk =   0.0063492
        k(    4) = (   0.0000000   0.0000000   0.6895134), wk =   0.0063492
        k(    5) = (   0.0000000   0.0000000   0.9193512), wk =   0.0063492
        k(    6) = (   0.0000000   0.2350712   0.0000000), wk =   0.0063492
        k(    7) = (   0.0000000   0.2350712   0.2298378), wk =   0.0063492
        k(    8) = (   0.0000000   0.2350712   0.4596756), wk =   0.0063492
        k(    9) = (   0.0000000   0.2350712   0.6895134), wk =   0.0063492
        k(   10) = (   0.0000000   0.2350712   0.9193512), wk =   0.0063492
        k(   11) = (   0.0000000   0.4701424   0.0000000), wk =   0.0063492
        k(   12) = (   0.0000000   0.4701424   0.2298378), wk =   0.0063492
        k(   13) = (   0.0000000   0.4701424   0.4596756), wk =   0.0063492
        k(   14) = (   0.0000000   0.4701424   0.6895134), wk =   0.0063492
        k(   15) = (   0.0000000   0.4701424   0.9193512), wk =   0.0063492
        k(   16) = (   0.0000000   0.7052137   0.0000000), wk =   0.0063492
        k(   17) = (   0.0000000   0.7052137   0.2298378), wk =   0.0063492
        k(   18) = (   0.0000000   0.7052137   0.4596756), wk =   0.0063492
        k(   19) = (   0.0000000   0.7052137   0.6895134), wk =   0.0063492
        k(   20) = (   0.0000000   0.7052137   0.9193512), wk =   0.0063492
        k(   21) = (   0.2000000   0.0000000   0.0000000), wk =   0.0063492
        k(   22) = (   0.2000000   0.0000000   0.2298378), wk =   0.0063492
        k(   23) = (   0.2000000   0.0000000   0.4596756), wk =   0.0063492
        k(   24) = (   0.2000000   0.0000000   0.6895134), wk =   0.0063492
        k(   25) = (   0.2000000   0.0000000   0.9193512), wk =   0.0063492
        k(   26) = (   0.2000000   0.2350712   0.0000000), wk =   0.0063492
        k(   27) = (   0.2000000   0.2350712   0.2298378), wk =   0.0063492
        k(   28) = (   0.2000000   0.2350712   0.4596756), wk =   0.0063492
        k(   29) = (   0.2000000   0.2350712   0.6895134), wk =   0.0063492
        k(   30) = (   0.2000000   0.2350712   0.9193512), wk =   0.0063492
        k(   31) = (   0.2000000   0.4701424   0.0000000), wk =   0.0063492
        k(   32) = (   0.2000000   0.4701424   0.2298378), wk =   0.0063492
        k(   33) = (   0.2000000   0.4701424   0.4596756), wk =   0.0063492
        k(   34) = (   0.2000000   0.4701424   0.6895134), wk =   0.0063492
        k(   35) = (   0.2000000   0.4701424   0.9193512), wk =   0.0063492
        k(   36) = (   0.2000000   0.7052137   0.0000000), wk =   0.0063492
        k(   37) = (   0.2000000   0.7052137   0.2298378), wk =   0.0063492
        k(   38) = (   0.2000000   0.7052137   0.4596756), wk =   0.0063492
        k(   39) = (   0.2000000   0.7052137   0.6895134), wk =   0.0063492
        k(   40) = (   0.2000000   0.7052137   0.9193512), wk =   0.0063492
        k(   41) = (   0.4000000   0.0000000   0.0000000), wk =   0.0063492
        k(   42) = (   0.4000000   0.0000000   0.2298378), wk =   0.0063492
        k(   43) = (   0.4000000   0.0000000   0.4596756), wk =   0.0063492
        k(   44) = (   0.4000000   0.0000000   0.6895134), wk =   0.0063492
        k(   45) = (   0.4000000   0.0000000   0.9193512), wk =   0.0063492
        k(   46) = (   0.4000000   0.2350712   0.0000000), wk =   0.0063492
        k(   47) = (   0.4000000   0.2350712   0.2298378), wk =   0.0063492
        k(   48) = (   0.4000000   0.2350712   0.4596756), wk =   0.0063492
        k(   49) = (   0.4000000   0.2350712   0.6895134), wk =   0.0063492
        k(   50) = (   0.4000000   0.2350712   0.9193512), wk =   0.0063492
        k(   51) = (   0.4000000   0.4701424   0.0000000), wk =   0.0063492
        k(   52) = (   0.4000000   0.4701424   0.2298378), wk =   0.0063492
        k(   53) = (   0.4000000   0.4701424   0.4596756), wk =   0.0063492
        k(   54) = (   0.4000000   0.4701424   0.6895134), wk =   0.0063492
        k(   55) = (   0.4000000   0.4701424   0.9193512), wk =   0.0063492
        k(   56) = (   0.4000000   0.7052137   0.0000000), wk =   0.0063492
        k(   57) = (   0.4000000   0.7052137   0.2298378), wk =   0.0063492
        k(   58) = (   0.4000000   0.7052137   0.4596756), wk =   0.0063492
        k(   59) = (   0.4000000   0.7052137   0.6895134), wk =   0.0063492
        k(   60) = (   0.4000000   0.7052137   0.9193512), wk =   0.0063492
        k(   61) = (   0.0000000  -0.2350712   0.2298378), wk =   0.0063492
        k(   62) = (   0.0000000  -0.2350712   0.4596756), wk =   0.0063492
        k(   63) = (   0.0000000  -0.2350712   0.6895134), wk =   0.0063492
        k(   64) = (   0.0000000  -0.2350712   0.9193512), wk =   0.0063492
        k(   65) = (   0.0000000  -0.4701424   0.2298378), wk =   0.0063492
        k(   66) = (   0.0000000  -0.4701424   0.4596756), wk =   0.0063492
        k(   67) = (   0.0000000  -0.4701424   0.6895134), wk =   0.0063492
        k(   68) = (   0.0000000  -0.4701424   0.9193512), wk =   0.0063492
        k(   69) = (   0.0000000  -0.7052137   0.2298378), wk =   0.0063492
        k(   70) = (   0.0000000  -0.7052137   0.4596756), wk =   0.0063492
        k(   71) = (   0.0000000  -0.7052137   0.6895134), wk =   0.0063492
        k(   72) = (   0.0000000  -0.7052137   0.9193512), wk =   0.0063492
        k(   73) = (  -0.2000000   0.0000000   0.2298378), wk =   0.0063492
        k(   74) = (  -0.2000000   0.0000000   0.4596756), wk =   0.0063492
        k(   75) = (  -0.2000000   0.0000000   0.6895134), wk =   0.0063492
        k(   76) = (  -0.2000000   0.0000000   0.9193512), wk =   0.0063492
        k(   77) = (  -0.2000000   0.2350712   0.0000000), wk =   0.0063492
        k(   78) = (  -0.2000000  -0.2350712   0.2298378), wk =   0.0063492
        k(   79) = (  -0.2000000   0.2350712  -0.2298378), wk =   0.0063492
        k(   80) = (   0.2000000  -0.2350712  -0.2298378), wk =   0.0063492
        k(   81) = (  -0.2000000  -0.2350712   0.4596756), wk =   0.0063492
        k(   82) = (  -0.2000000   0.2350712  -0.4596756), wk =   0.0063492
        k(   83) = (   0.2000000  -0.2350712  -0.4596756), wk =   0.0063492
        k(   84) = (  -0.2000000  -0.2350712   0.6895134), wk =   0.0063492
        k(   85) = (  -0.2000000   0.2350712  -0.6895134), wk =   0.0063492
        k(   86) = (   0.2000000  -0.2350712  -0.6895134), wk =   0.0063492
        k(   87) = (  -0.2000000  -0.2350712   0.9193512), wk =   0.0063492
        k(   88) = (  -0.2000000   0.2350712  -0.9193512), wk =   0.0063492
        k(   89) = (   0.2000000  -0.2350712  -0.9193512), wk =   0.0063492
        k(   90) = (  -0.2000000   0.4701424   0.0000000), wk =   0.0063492
        k(   91) = (  -0.2000000  -0.4701424   0.2298378), wk =   0.0063492
        k(   92) = (  -0.2000000   0.4701424  -0.2298378), wk =   0.0063492
        k(   93) = (   0.2000000  -0.4701424  -0.2298378), wk =   0.0063492
        k(   94) = (  -0.2000000  -0.4701424   0.4596756), wk =   0.0063492
        k(   95) = (  -0.2000000   0.4701424  -0.4596756), wk =   0.0063492
        k(   96) = (   0.2000000  -0.4701424  -0.4596756), wk =   0.0063492
        k(   97) = (  -0.2000000  -0.4701424   0.6895134), wk =   0.0063492
        k(   98) = (  -0.2000000   0.4701424  -0.6895134), wk =   0.0063492
        k(   99) = (   0.2000000  -0.4701424  -0.6895134), wk =   0.0063492
        k(  100) = (  -0.2000000  -0.4701424   0.9193512), wk =   0.0063492
        k(  101) = (  -0.2000000   0.4701424  -0.9193512), wk =   0.0063492
        k(  102) = (   0.2000000  -0.4701424  -0.9193512), wk =   0.0063492
        k(  103) = (  -0.2000000   0.7052137   0.0000000), wk =   0.0063492
        k(  104) = (  -0.2000000  -0.7052137   0.2298378), wk =   0.0063492
        k(  105) = (  -0.2000000   0.7052137  -0.2298378), wk =   0.0063492
        k(  106) = (   0.2000000  -0.7052137  -0.2298378), wk =   0.0063492
        k(  107) = (  -0.2000000  -0.7052137   0.4596756), wk =   0.0063492
        k(  108) = (  -0.2000000   0.7052137  -0.4596756), wk =   0.0063492
        k(  109) = (   0.2000000  -0.7052137  -0.4596756), wk =   0.0063492
        k(  110) = (  -0.2000000  -0.7052137   0.6895134), wk =   0.0063492
        k(  111) = (  -0.2000000   0.7052137  -0.6895134), wk =   0.0063492
        k(  112) = (   0.2000000  -0.7052137  -0.6895134), wk =   0.0063492
        k(  113) = (  -0.2000000  -0.7052137   0.9193512), wk =   0.0063492
        k(  114) = (  -0.2000000   0.7052137  -0.9193512), wk =   0.0063492
        k(  115) = (   0.2000000  -0.7052137  -0.9193512), wk =   0.0063492
        k(  116) = (  -0.4000000   0.0000000   0.2298378), wk =   0.0063492
        k(  117) = (  -0.4000000   0.0000000   0.4596756), wk =   0.0063492
        k(  118) = (  -0.4000000   0.0000000   0.6895134), wk =   0.0063492
        k(  119) = (  -0.4000000   0.0000000   0.9193512), wk =   0.0063492
        k(  120) = (  -0.4000000   0.2350712   0.0000000), wk =   0.0063492
        k(  121) = (  -0.4000000  -0.2350712   0.2298378), wk =   0.0063492
        k(  122) = (  -0.4000000   0.2350712  -0.2298378), wk =   0.0063492
        k(  123) = (   0.4000000  -0.2350712  -0.2298378), wk =   0.0063492
        k(  124) = (  -0.4000000  -0.2350712   0.4596756), wk =   0.0063492
        k(  125) = (  -0.4000000   0.2350712  -0.4596756), wk =   0.0063492
        k(  126) = (   0.4000000  -0.2350712  -0.4596756), wk =   0.0063492
        k(  127) = (  -0.4000000  -0.2350712   0.6895134), wk =   0.0063492
        k(  128) = (  -0.4000000   0.2350712  -0.6895134), wk =   0.0063492
        k(  129) = (   0.4000000  -0.2350712  -0.6895134), wk =   0.0063492
        k(  130) = (  -0.4000000  -0.2350712   0.9193512), wk =   0.0063492
        k(  131) = (  -0.4000000   0.2350712  -0.9193512), wk =   0.0063492
        k(  132) = (   0.4000000  -0.2350712  -0.9193512), wk =   0.0063492
        k(  133) = (  -0.4000000   0.4701424   0.0000000), wk =   0.0063492
        k(  134) = (  -0.4000000  -0.4701424   0.2298378), wk =   0.0063492
        k(  135) = (  -0.4000000   0.4701424  -0.2298378), wk =   0.0063492
        k(  136) = (   0.4000000  -0.4701424  -0.2298378), wk =   0.0063492
        k(  137) = (  -0.4000000  -0.4701424   0.4596756), wk =   0.0063492
        k(  138) = (  -0.4000000   0.4701424  -0.4596756), wk =   0.0063492
        k(  139) = (   0.4000000  -0.4701424  -0.4596756), wk =   0.0063492
        k(  140) = (  -0.4000000  -0.4701424   0.6895134), wk =   0.0063492
        k(  141) = (  -0.4000000   0.4701424  -0.6895134), wk =   0.0063492
        k(  142) = (   0.4000000  -0.4701424  -0.6895134), wk =   0.0063492
        k(  143) = (  -0.4000000  -0.4701424   0.9193512), wk =   0.0063492
        k(  144) = (  -0.4000000   0.4701424  -0.9193512), wk =   0.0063492
        k(  145) = (   0.4000000  -0.4701424  -0.9193512), wk =   0.0063492
        k(  146) = (  -0.4000000   0.7052137   0.0000000), wk =   0.0063492
        k(  147) = (  -0.4000000  -0.7052137   0.2298378), wk =   0.0063492
        k(  148) = (  -0.4000000   0.7052137  -0.2298378), wk =   0.0063492
        k(  149) = (   0.4000000  -0.7052137  -0.2298378), wk =   0.0063492
        k(  150) = (  -0.4000000  -0.7052137   0.4596756), wk =   0.0063492
        k(  151) = (  -0.4000000   0.7052137  -0.4596756), wk =   0.0063492
        k(  152) = (   0.4000000  -0.7052137  -0.4596756), wk =   0.0063492
        k(  153) = (  -0.4000000  -0.7052137   0.6895134), wk =   0.0063492
        k(  154) = (  -0.4000000   0.7052137  -0.6895134), wk =   0.0063492
        k(  155) = (   0.4000000  -0.7052137  -0.6895134), wk =   0.0063492
        k(  156) = (  -0.4000000  -0.7052137   0.9193512), wk =   0.0063492
        k(  157) = (  -0.4000000   0.7052137  -0.9193512), wk =   0.0063492
        k(  158) = (   0.4000000  -0.7052137  -0.9193512), wk =   0.0063492

                       cryst. coord.
        k(    1) = (   0.0000000   0.0000000   0.0000000), wk =   0.0031746
        k(    2) = (   0.0000000   0.0000000   0.1111111), wk =   0.0063492
        k(    3) = (   0.0000000   0.0000000   0.2222222), wk =   0.0063492
        k(    4) = (   0.0000000   0.0000000   0.3333333), wk =   0.0063492
        k(    5) = (   0.0000000   0.0000000   0.4444444), wk =   0.0063492
        k(    6) = (   0.0000000   0.1428571   0.0000000), wk =   0.0063492
        k(    7) = (   0.0000000   0.1428571   0.1111111), wk =   0.0063492
        k(    8) = (   0.0000000   0.1428571   0.2222222), wk =   0.0063492
        k(    9) = (   0.0000000   0.1428571   0.3333333), wk =   0.0063492
        k(   10) = (   0.0000000   0.1428571   0.4444444), wk =   0.0063492
        k(   11) = (   0.0000000   0.2857143   0.0000000), wk =   0.0063492
        k(   12) = (   0.0000000   0.2857143   0.1111111), wk =   0.0063492
        k(   13) = (   0.0000000   0.2857143   0.2222222), wk =   0.0063492
        k(   14) = (   0.0000000   0.2857143   0.3333333), wk =   0.0063492
        k(   15) = (   0.0000000   0.2857143   0.4444444), wk =   0.0063492
        k(   16) = (   0.0000000   0.4285714   0.0000000), wk =   0.0063492
        k(   17) = (   0.0000000   0.4285714   0.1111111), wk =   0.0063492
        k(   18) = (   0.0000000   0.4285714   0.2222222), wk =   0.0063492
        k(   19) = (   0.0000000   0.4285714   0.3333333), wk =   0.0063492
        k(   20) = (   0.0000000   0.4285714   0.4444444), wk =   0.0063492
        k(   21) = (   0.2000000   0.0000000   0.0000000), wk =   0.0063492
        k(   22) = (   0.2000000   0.0000000   0.1111111), wk =   0.0063492
        k(   23) = (   0.2000000   0.0000000   0.2222222), wk =   0.0063492
        k(   24) = (   0.2000000   0.0000000   0.3333333), wk =   0.0063492
        k(   25) = (   0.2000000   0.0000000   0.4444444), wk =   0.0063492
        k(   26) = (   0.2000000   0.1428571   0.0000000), wk =   0.0063492
        k(   27) = (   0.2000000   0.1428571   0.1111111), wk =   0.0063492
        k(   28) = (   0.2000000   0.1428571   0.2222222), wk =   0.0063492
        k(   29) = (   0.2000000   0.1428571   0.3333333), wk =   0.0063492
        k(   30) = (   0.2000000   0.1428571   0.4444444), wk =   0.0063492
        k(   31) = (   0.2000000   0.2857143   0.0000000), wk =   0.0063492
        k(   32) = (   0.2000000   0.2857143   0.1111111), wk =   0.0063492
        k(   33) = (   0.2000000   0.2857143   0.2222222), wk =   0.0063492
        k(   34) = (   0.2000000   0.2857143   0.3333333), wk =   0.0063492
        k(   35) = (   0.2000000   0.2857143   0.4444444), wk =   0.0063492
        k(   36) = (   0.2000000   0.4285714   0.0000000), wk =   0.0063492
        k(   37) = (   0.2000000   0.4285714   0.1111111), wk =   0.0063492
        k(   38) = (   0.2000000   0.4285714   0.2222222), wk =   0.0063492
        k(   39) = (   0.2000000   0.4285714   0.3333333), wk =   0.0063492
        k(   40) = (   0.2000000   0.4285714   0.4444444), wk =   0.0063492
        k(   41) = (   0.4000000   0.0000000   0.0000000), wk =   0.0063492
        k(   42) = (   0.4000000   0.0000000   0.1111111), wk =   0.0063492
        k(   43) = (   0.4000000   0.0000000   0.2222222), wk =   0.0063492
        k(   44) = (   0.4000000   0.0000000   0.3333333), wk =   0.0063492
        k(   45) = (   0.4000000   0.0000000   0.4444444), wk =   0.0063492
        k(   46) = (   0.4000000   0.1428571   0.0000000), wk =   0.0063492
        k(   47) = (   0.4000000   0.1428571   0.1111111), wk =   0.0063492
        k(   48) = (   0.4000000   0.1428571   0.2222222), wk =   0.0063492
        k(   49) = (   0.4000000   0.1428571   0.3333333), wk =   0.0063492
        k(   50) = (   0.4000000   0.1428571   0.4444444), wk =   0.0063492
        k(   51) = (   0.4000000   0.2857143   0.0000000), wk =   0.0063492
        k(   52) = (   0.4000000   0.2857143   0.1111111), wk =   0.0063492
        k(   53) = (   0.4000000   0.2857143   0.2222222), wk =   0.0063492
        k(   54) = (   0.4000000   0.2857143   0.3333333), wk =   0.0063492
        k(   55) = (   0.4000000   0.2857143   0.4444444), wk =   0.0063492
        k(   56) = (   0.4000000   0.4285714   0.0000000), wk =   0.0063492
        k(   57) = (   0.4000000   0.4285714   0.1111111), wk =   0.0063492
        k(   58) = (   0.4000000   0.4285714   0.2222222), wk =   0.0063492
        k(   59) = (   0.4000000   0.4285714   0.3333333), wk =   0.0063492
        k(   60) = (   0.4000000   0.4285714   0.4444444), wk =   0.0063492
        k(   61) = (   0.0000000  -0.1428571   0.1111111), wk =   0.0063492
        k(   62) = (   0.0000000  -0.1428571   0.2222222), wk =   0.0063492
        k(   63) = (   0.0000000  -0.1428571   0.3333333), wk =   0.0063492
        k(   64) = (   0.0000000  -0.1428571   0.4444444), wk =   0.0063492
        k(   65) = (   0.0000000  -0.2857143   0.1111111), wk =   0.0063492
        k(   66) = (   0.0000000  -0.2857143   0.2222222), wk =   0.0063492
        k(   67) = (   0.0000000  -0.2857143   0.3333333), wk =   0.0063492
        k(   68) = (   0.0000000  -0.2857143   0.4444444), wk =   0.0063492
        k(   69) = (   0.0000000  -0.4285714   0.1111111), wk =   0.0063492
        k(   70) = (   0.0000000  -0.4285714   0.2222222), wk =   0.0063492
        k(   71) = (   0.0000000  -0.4285714   0.3333333), wk =   0.0063492
        k(   72) = (   0.0000000  -0.4285714   0.4444444), wk =   0.0063492
        k(   73) = (  -0.2000000   0.0000000   0.1111111), wk =   0.0063492
        k(   74) = (  -0.2000000   0.0000000   0.2222222), wk =   0.0063492
        k(   75) = (  -0.2000000   0.0000000   0.3333333), wk =   0.0063492
        k(   76) = (  -0.2000000   0.0000000   0.4444444), wk =   0.0063492
        k(   77) = (  -0.2000000   0.1428571   0.0000000), wk =   0.0063492
        k(   78) = (  -0.2000000  -0.1428571   0.1111111), wk =   0.0063492
        k(   79) = (  -0.2000000   0.1428571  -0.1111111), wk =   0.0063492
        k(   80) = (   0.2000000  -0.1428571  -0.1111111), wk =   0.0063492
        k(   81) = (  -0.2000000  -0.1428571   0.2222222), wk =   0.0063492
        k(   82) = (  -0.2000000   0.1428571  -0.2222222), wk =   0.0063492
        k(   83) = (   0.2000000  -0.1428571  -0.2222222), wk =   0.0063492
        k(   84) = (  -0.2000000  -0.1428571   0.3333333), wk =   0.0063492
        k(   85) = (  -0.2000000   0.1428571  -0.3333333), wk =   0.0063492
        k(   86) = (   0.2000000  -0.1428571  -0.3333333), wk =   0.0063492
        k(   87) = (  -0.2000000  -0.1428571   0.4444444), wk =   0.0063492
        k(   88) = (  -0.2000000   0.1428571  -0.4444444), wk =   0.0063492
        k(   89) = (   0.2000000  -0.1428571  -0.4444444), wk =   0.0063492
        k(   90) = (  -0.2000000   0.2857143   0.0000000), wk =   0.0063492
        k(   91) = (  -0.2000000  -0.2857143   0.1111111), wk =   0.0063492
        k(   92) = (  -0.2000000   0.2857143  -0.1111111), wk =   0.0063492
        k(   93) = (   0.2000000  -0.2857143  -0.1111111), wk =   0.0063492
        k(   94) = (  -0.2000000  -0.2857143   0.2222222), wk =   0.0063492
        k(   95) = (  -0.2000000   0.2857143  -0.2222222), wk =   0.0063492
        k(   96) = (   0.2000000  -0.2857143  -0.2222222), wk =   0.0063492
        k(   97) = (  -0.2000000  -0.2857143   0.3333333), wk =   0.0063492
        k(   98) = (  -0.2000000   0.2857143  -0.3333333), wk =   0.0063492
        k(   99) = (   0.2000000  -0.2857143  -0.3333333), wk =   0.0063492
        k(  100) = (  -0.2000000  -0.2857143   0.4444444), wk =   0.0063492
        k(  101) = (  -0.2000000   0.2857143  -0.4444444), wk =   0.0063492
        k(  102) = (   0.2000000  -0.2857143  -0.4444444), wk =   0.0063492
        k(  103) = (  -0.2000000   0.4285714   0.0000000), wk =   0.0063492
        k(  104) = (  -0.2000000  -0.4285714   0.1111111), wk =   0.0063492
        k(  105) = (  -0.2000000   0.4285714  -0.1111111), wk =   0.0063492
        k(  106) = (   0.2000000  -0.4285714  -0.1111111), wk =   0.0063492
        k(  107) = (  -0.2000000  -0.4285714   0.2222222), wk =   0.0063492
        k(  108) = (  -0.2000000   0.4285714  -0.2222222), wk =   0.0063492
        k(  109) = (   0.2000000  -0.4285714  -0.2222222), wk =   0.0063492
        k(  110) = (  -0.2000000  -0.4285714   0.3333333), wk =   0.0063492
        k(  111) = (  -0.2000000   0.4285714  -0.3333333), wk =   0.0063492
        k(  112) = (   0.2000000  -0.4285714  -0.3333333), wk =   0.0063492
        k(  113) = (  -0.2000000  -0.4285714   0.4444444), wk =   0.0063492
        k(  114) = (  -0.2000000   0.4285714  -0.4444444), wk =   0.0063492
        k(  115) = (   0.2000000  -0.4285714  -0.4444444), wk =   0.0063492
        k(  116) = (  -0.4000000   0.0000000   0.1111111), wk =   0.0063492
        k(  117) = (  -0.4000000   0.0000000   0.2222222), wk =   0.0063492
        k(  118) = (  -0.4000000   0.0000000   0.3333333), wk =   0.0063492
        k(  119) = (  -0.4000000   0.0000000   0.4444444), wk =   0.0063492
        k(  120) = (  -0.4000000   0.1428571   0.0000000), wk =   0.0063492
        k(  121) = (  -0.4000000  -0.1428571   0.1111111), wk =   0.0063492
        k(  122) = (  -0.4000000   0.1428571  -0.1111111), wk =   0.0063492
        k(  123) = (   0.4000000  -0.1428571  -0.1111111), wk =   0.0063492
        k(  124) = (  -0.4000000  -0.1428571   0.2222222), wk =   0.0063492
        k(  125) = (  -0.4000000   0.1428571  -0.2222222), wk =   0.0063492
        k(  126) = (   0.4000000  -0.1428571  -0.2222222), wk =   0.0063492
        k(  127) = (  -0.4000000  -0.1428571   0.3333333), wk =   0.0063492
        k(  128) = (  -0.4000000   0.1428571  -0.3333333), wk =   0.0063492
        k(  129) = (   0.4000000  -0.1428571  -0.3333333), wk =   0.0063492
        k(  130) = (  -0.4000000  -0.1428571   0.4444444), wk =   0.0063492
        k(  131) = (  -0.4000000   0.1428571  -0.4444444), wk =   0.0063492
        k(  132) = (   0.4000000  -0.1428571  -0.4444444), wk =   0.0063492
        k(  133) = (  -0.4000000   0.2857143   0.0000000), wk =   0.0063492
        k(  134) = (  -0.4000000  -0.2857143   0.1111111), wk =   0.0063492
        k(  135) = (  -0.4000000   0.2857143  -0.1111111), wk =   0.0063492
        k(  136) = (   0.4000000  -0.2857143  -0.1111111), wk =   0.0063492
        k(  137) = (  -0.4000000  -0.2857143   0.2222222), wk =   0.0063492
        k(  138) = (  -0.4000000   0.2857143  -0.2222222), wk =   0.0063492
        k(  139) = (   0.4000000  -0.2857143  -0.2222222), wk =   0.0063492
        k(  140) = (  -0.4000000  -0.2857143   0.3333333), wk =   0.0063492
        k(  141) = (  -0.4000000   0.2857143  -0.3333333), wk =   0.0063492
        k(  142) = (   0.4000000  -0.2857143  -0.3333333), wk =   0.0063492
        k(  143) = (  -0.4000000  -0.2857143   0.4444444), wk =   0.0063492
        k(  144) = (  -0.4000000   0.2857143  -0.4444444), wk =   0.0063492
        k(  145) = (   0.4000000  -0.2857143  -0.4444444), wk =   0.0063492
        k(  146) = (  -0.4000000   0.4285714   0.0000000), wk =   0.0063492
        k(  147) = (  -0.4000000  -0.4285714   0.1111111), wk =   0.0063492
        k(  148) = (  -0.4000000   0.4285714  -0.1111111), wk =   0.0063492
        k(  149) = (   0.4000000  -0.4285714  -0.1111111), wk =   0.0063492
        k(  150) = (  -0.4000000  -0.4285714   0.2222222), wk =   0.0063492
        k(  151) = (  -0.4000000   0.4285714  -0.2222222), wk =   0.0063492
        k(  152) = (   0.4000000  -0.4285714  -0.2222222), wk =   0.0063492
        k(  153) = (  -0.4000000  -0.4285714   0.3333333), wk =   0.0063492
        k(  154) = (  -0.4000000   0.4285714  -0.3333333), wk =   0.0063492
        k(  155) = (   0.4000000  -0.4285714  -0.3333333), wk =   0.0063492
        k(  156) = (  -0.4000000  -0.4285714   0.4444444), wk =   0.0063492
        k(  157) = (  -0.4000000   0.4285714  -0.4444444), wk =   0.0063492
        k(  158) = (   0.4000000  -0.4285714  -0.4444444), wk =   0.0063492

     Dense  grid:  1273469 G-vectors     FFT dimensions: ( 216, 125, 100)

     Smooth grid:   287059 G-vectors     FFT dimensions: ( 125,  75,  60)

     Dynamical RAM for                 wfc:       5.20 MB

     Dynamical RAM for     wfc (w. buffer):    1648.20 MB

     Dynamical RAM for           str. fact:       6.48 MB

     Dynamical RAM for           local pot:       0.00 MB

     Dynamical RAM for          nlocal pot:      12.77 MB

     Dynamical RAM for                qrad:      10.54 MB

     Dynamical RAM for          rho,v,vnew:      20.84 MB

     Dynamical RAM for               rhoin:       6.95 MB

     Dynamical RAM for            rho*nmix:      51.82 MB

     Dynamical RAM for           G-vectors:       6.25 MB

     Dynamical RAM for          h,s,v(r/c):       2.38 MB

     Dynamical RAM for          <psi|beta>:       0.49 MB

     Dynamical RAM for                 psi:      10.40 MB

     Dynamical RAM for                hpsi:      10.40 MB

     Dynamical RAM for                spsi:      10.40 MB

     Dynamical RAM for      wfcinit/wfcrot:      12.93 MB

     Dynamical RAM for           addusdens:     328.72 MB

     Dynamical RAM for          addusforce:     377.42 MB

     Dynamical RAM for         addusstress:     327.91 MB

     Estimated static dynamical RAM per process >       1.74 GB

     Estimated max dynamical RAM per process >       2.11 GB

     Estimated total dynamical RAM >      25.32 GB

     Check: negative core charge=   -0.000003
     Generating pointlists ...
     new r_m :   0.0769 (alat units)  1.4868 (a.u.) for type    1
     new r_m :   0.0923 (alat units)  1.7847 (a.u.) for type    2
     new r_m :   0.0609 (alat units)  1.1770 (a.u.) for type    3
     new r_m :   0.0609 (alat units)  1.1770 (a.u.) for type    4

     Initial potential from superposition of free atoms

     starting charge  188.99132, renormalised to  189.00000
     Starting wfcs are  137 randomized atomic wfcs
     Checking if some PAW data can be deallocated... 
       PAW data deallocated on   10 nodes for type:  1
       PAW data deallocated on    4 nodes for type:  3

     total cpu time spent up to now is     2445.3 secs

     Self-consistent Calculation

     iteration #  1     ecut=   100.00 Ry     beta= 0.40
     Davidson diagonalization with overlap
     ethr =  1.00E-02,  avg # of iterations =  3.0

     negative rho (up, down):  0.000E+00 1.149E-04

     total cpu time spent up to now is     9672.0 secs

     total energy              =   -2123.96721775 Ry
     estimated scf accuracy    <       6.85452522 Ry

     total magnetization       =    19.00 Bohr mag/cell
     absolute magnetization    =    19.00 Bohr mag/cell

     iteration #  2     ecut=   100.00 Ry     beta= 0.40
     Davidson diagonalization with overlap
     ethr =  3.63E-03,  avg # of iterations =  2.0

     negative rho (up, down):  0.000E+00 7.675E-05

     total cpu time spent up to now is    16440.4 secs

     total energy              =   -2122.13143390 Ry
     estimated scf accuracy    <      22.82459522 Ry

     total magnetization       =     9.36 Bohr mag/cell
     absolute magnetization    =    11.16 Bohr mag/cell

     iteration #  3     ecut=   100.00 Ry     beta= 0.40
     Davidson diagonalization with overlap
     ethr =  3.63E-03,  avg # of iterations =  2.0

     negative rho (up, down):  0.000E+00 6.666E-05

     total cpu time spent up to now is    22147.4 secs

     total energy              =   -2124.07616701 Ry
     estimated scf accuracy    <      45.52913186 Ry

     total magnetization       =     7.60 Bohr mag/cell
     absolute magnetization    =     8.82 Bohr mag/cell

     iteration #  4     ecut=   100.00 Ry     beta= 0.40
     Davidson diagonalization with overlap
     ethr =  3.63E-03,  avg # of iterations =  2.0

     negative rho (up, down):  0.000E+00 9.232E-05

     total cpu time spent up to now is    27706.1 secs

     total energy              =   -2125.12397946 Ry
     estimated scf accuracy    <      19.43655545 Ry

     total magnetization       =    13.06 Bohr mag/cell
     absolute magnetization    =    13.34 Bohr mag/cell

     iteration #  5     ecut=   100.00 Ry     beta= 0.40
     Davidson diagonalization with overlap
     ethr =  3.63E-03,  avg # of iterations =  1.5

     negative rho (up, down):  0.000E+00 1.419E-04

     total cpu time spent up to now is    33120.6 secs

     total energy              =   -2125.65101391 Ry
     estimated scf accuracy    <       7.71476668 Ry

     total magnetization       =    15.15 Bohr mag/cell
     absolute magnetization    =    15.36 Bohr mag/cell

     iteration #  6     ecut=   100.00 Ry     beta= 0.40
     Davidson diagonalization with overlap
     ethr =  3.63E-03,  avg # of iterations =  1.0

     negative rho (up, down):  0.000E+00 1.595E-04

     total cpu time spent up to now is    38383.1 secs

     total energy              =   -2125.76362732 Ry
     estimated scf accuracy    <       3.57365508 Ry

     total magnetization       =    16.94 Bohr mag/cell
     absolute magnetization    =    16.96 Bohr mag/cell

     iteration #  7     ecut=   100.00 Ry     beta= 0.40
     Davidson diagonalization with overlap
     ethr =  1.89E-03,  avg # of iterations =  1.0

     negative rho (up, down):  0.000E+00 2.420E-04

     total cpu time spent up to now is    43649.0 secs

     total energy              =   -2126.01875077 Ry
     estimated scf accuracy    <       2.01469549 Ry

     total magnetization       =    17.62 Bohr mag/cell
     absolute magnetization    =    17.64 Bohr mag/cell

     iteration #  8     ecut=   100.00 Ry     beta= 0.40
     Davidson diagonalization with overlap
     ethr =  1.07E-03,  avg # of iterations =  1.0

     negative rho (up, down):  0.000E+00 3.358E-04

     total cpu time spent up to now is    48879.1 secs

     total energy              =   -2126.07644692 Ry
     estimated scf accuracy    <       0.23817502 Ry

     total magnetization       =    19.00 Bohr mag/cell
     absolute magnetization    =    19.00 Bohr mag/cell

     iteration #  9     ecut=   100.00 Ry     beta= 0.40
     Davidson diagonalization with overlap
     c_bands:  1 eigenvalues not converged
     c_bands:  1 eigenvalues not converged
     ethr =  1.26E-04,  avg # of iterations =  6.7

     negative rho (up, down):  0.000E+00 6.003E-04

     total cpu time spent up to now is    54966.9 secs

     total energy              =   -2126.08052623 Ry
     estimated scf accuracy    <       0.11995283 Ry

     total magnetization       =    19.00 Bohr mag/cell
     absolute magnetization    =    19.00 Bohr mag/cell

     iteration # 10     ecut=   100.00 Ry     beta= 0.40
     Davidson diagonalization with overlap
     c_bands:  1 eigenvalues not converged
     c_bands:  1 eigenvalues not converged
     c_bands:  1 eigenvalues not converged
     c_bands:  1 eigenvalues not converged
     c_bands:  1 eigenvalues not converged
     c_bands:  1 eigenvalues not converged
     ethr =  6.35E-05,  avg # of iterations = 10.4

     negative rho (up, down):  0.000E+00 7.999E-04

     total cpu time spent up to now is    61808.1 secs

     total energy              =   -2126.09020524 Ry
     estimated scf accuracy    <       0.02214872 Ry

     total magnetization       =    19.00 Bohr mag/cell
     absolute magnetization    =    19.01 Bohr mag/cell

     iteration # 11     ecut=   100.00 Ry     beta= 0.40
     Davidson diagonalization with overlap
     c_bands:  1 eigenvalues not converged
     c_bands:  1 eigenvalues not converged
     c_bands:  1 eigenvalues not converged
     c_bands:  1 eigenvalues not converged
     c_bands:  1 eigenvalues not converged
     c_bands:  1 eigenvalues not converged
     ethr =  1.17E-05,  avg # of iterations =  9.5

     negative rho (up, down):  0.000E+00 8.331E-04

     total cpu time spent up to now is    69247.5 secs

     total energy              =   -2126.09350834 Ry
     estimated scf accuracy    <       0.02854874 Ry

     total magnetization       =    19.00 Bohr mag/cell
     absolute magnetization    =    19.02 Bohr mag/cell

     iteration # 12     ecut=   100.00 Ry     beta= 0.40
     Davidson diagonalization with overlap
     ethr =  1.17E-05,  avg # of iterations =  1.0

     negative rho (up, down):  0.000E+00 8.403E-04

     total cpu time spent up to now is    74548.9 secs

     total energy              =   -2126.09471231 Ry
     estimated scf accuracy    <       0.00767894 Ry

     total magnetization       =    19.00 Bohr mag/cell
     absolute magnetization    =    19.03 Bohr mag/cell

     iteration # 13     ecut=   100.00 Ry     beta= 0.40
     Davidson diagonalization with overlap
     c_bands:  1 eigenvalues not converged
     c_bands:  1 eigenvalues not converged
     ethr =  4.06E-06,  avg # of iterations =  3.1

     negative rho (up, down):  0.000E+00 8.766E-04

     total cpu time spent up to now is    80215.1 secs

     total energy              =   -2126.09526550 Ry
     estimated scf accuracy    <       0.00560978 Ry

     total magnetization       =    19.00 Bohr mag/cell
     absolute magnetization    =    19.03 Bohr mag/cell

     iteration # 14     ecut=   100.00 Ry     beta= 0.40
     Davidson diagonalization with overlap
     ethr =  2.97E-06,  avg # of iterations =  1.1

     negative rho (up, down):  0.000E+00 8.782E-04

     total cpu time spent up to now is    85486.1 secs

     total energy              =   -2126.09545693 Ry
     estimated scf accuracy    <       0.00519669 Ry

     total magnetization       =    19.00 Bohr mag/cell
     absolute magnetization    =    19.04 Bohr mag/cell

     iteration # 15     ecut=   100.00 Ry     beta= 0.40
     Davidson diagonalization with overlap
     ethr =  2.75E-06,  avg # of iterations =  1.0

     negative rho (up, down):  0.000E+00 8.887E-04

     total cpu time spent up to now is    90751.4 secs

     total energy              =   -2126.09566519 Ry
     estimated scf accuracy    <       0.00046531 Ry

     total magnetization       =    19.00 Bohr mag/cell
     absolute magnetization    =    19.04 Bohr mag/cell

     iteration # 16     ecut=   100.00 Ry     beta= 0.40
     Davidson diagonalization with overlap
     c_bands:  1 eigenvalues not converged
     ethr =  2.46E-07,  avg # of iterations =  5.8

     negative rho (up, down):  0.000E+00 8.796E-04

     total cpu time spent up to now is    99840.6 secs

     total energy              =   -2126.09591271 Ry
     estimated scf accuracy    <       0.00009630 Ry

     total magnetization       =    19.00 Bohr mag/cell
     absolute magnetization    =    19.04 Bohr mag/cell

     iteration # 17     ecut=   100.00 Ry     beta= 0.40
     Davidson diagonalization with overlap
     ethr =  5.10E-08,  avg # of iterations =  1.8

     negative rho (up, down):  0.000E+00 8.761E-04

     total cpu time spent up to now is   105300.2 secs

     total energy              =   -2126.09592510 Ry
     estimated scf accuracy    <       0.00001510 Ry

     total magnetization       =    19.00 Bohr mag/cell
     absolute magnetization    =    19.04 Bohr mag/cell

     iteration # 18     ecut=   100.00 Ry     beta= 0.40
     Davidson diagonalization with overlap
     ethr =  7.99E-09,  avg # of iterations =  3.8

     negative rho (up, down):  0.000E+00 8.736E-04

     total cpu time spent up to now is   111964.6 secs

     total energy              =   -2126.09592992 Ry
     estimated scf accuracy    <       0.00001142 Ry

     total magnetization       =    19.00 Bohr mag/cell
     absolute magnetization    =    19.04 Bohr mag/cell

     iteration # 19     ecut=   100.00 Ry     beta= 0.40
     Davidson diagonalization with overlap
     ethr =  6.04E-09,  avg # of iterations =  1.4

     negative rho (up, down):  0.000E+00 8.708E-04

     total cpu time spent up to now is   117275.7 secs

     total energy              =   -2126.09593075 Ry
     estimated scf accuracy    <       0.00002657 Ry

     total magnetization       =    19.00 Bohr mag/cell
     absolute magnetization    =    19.04 Bohr mag/cell

     iteration # 20     ecut=   100.00 Ry     beta= 0.40
     Davidson diagonalization with overlap
     ethr =  6.04E-09,  avg # of iterations =  1.0

     negative rho (up, down):  0.000E+00 8.701E-04

     total cpu time spent up to now is   122562.4 secs

     total energy              =   -2126.09593204 Ry
     estimated scf accuracy    <       0.00001101 Ry

     total magnetization       =    19.00 Bohr mag/cell
     absolute magnetization    =    19.04 Bohr mag/cell

     iteration # 21     ecut=   100.00 Ry     beta= 0.40
     Davidson diagonalization with overlap
     ethr =  5.83E-09,  avg # of iterations =  1.0

     negative rho (up, down):  0.000E+00 8.701E-04

     total cpu time spent up to now is   127873.5 secs

     total energy              =   -2126.09593277 Ry
     estimated scf accuracy    <       0.00000100 Ry

     total magnetization       =    19.00 Bohr mag/cell
     absolute magnetization    =    19.04 Bohr mag/cell

     iteration # 22     ecut=   100.00 Ry     beta= 0.40
     Davidson diagonalization with overlap
     ethr =  5.31E-10,  avg # of iterations =  4.2

     negative rho (up, down):  0.000E+00 8.702E-04

     total cpu time spent up to now is   135706.2 secs

     total energy              =   -2126.09593331 Ry
     estimated scf accuracy    <       0.00000021 Ry

     total magnetization       =    19.00 Bohr mag/cell
     absolute magnetization    =    19.04 Bohr mag/cell

     iteration # 23     ecut=   100.00 Ry     beta= 0.40
     Davidson diagonalization with overlap
     ethr =  1.11E-10,  avg # of iterations =  2.6

     negative rho (up, down):  0.000E+00 8.708E-04

     total cpu time spent up to now is   141929.9 secs

     total energy              =   -2126.09593341 Ry
     estimated scf accuracy    <       0.00000013 Ry

     total magnetization       =    19.00 Bohr mag/cell
     absolute magnetization    =    19.04 Bohr mag/cell

     iteration # 24     ecut=   100.00 Ry     beta= 0.40
     Davidson diagonalization with overlap
     ethr =  6.73E-11,  avg # of iterations =  2.0

     negative rho (up, down):  0.000E+00 8.707E-04

     total cpu time spent up to now is   147757.0 secs

     total energy              =   -2126.09593347 Ry
     estimated scf accuracy    <       0.00000009 Ry

     total magnetization       =    19.00 Bohr mag/cell
     absolute magnetization    =    19.04 Bohr mag/cell

     iteration # 25     ecut=   100.00 Ry     beta= 0.40
     Davidson diagonalization with overlap
     ethr =  4.60E-11,  avg # of iterations =  2.0

     negative rho (up, down):  0.000E+00 8.708E-04

     total cpu time spent up to now is   153336.3 secs

     total energy              =   -2126.09593349 Ry
     estimated scf accuracy    <       0.00000037 Ry

     total magnetization       =    19.00 Bohr mag/cell
     absolute magnetization    =    19.04 Bohr mag/cell

     iteration # 26     ecut=   100.00 Ry     beta= 0.40
     Davidson diagonalization with overlap
     ethr =  4.60E-11,  avg # of iterations =  1.0

     negative rho (up, down):  0.000E+00 8.707E-04

     total cpu time spent up to now is   158626.8 secs

     total energy              =   -2126.09593350 Ry
     estimated scf accuracy    <       0.00000002 Ry

     total magnetization       =    19.00 Bohr mag/cell
     absolute magnetization    =    19.04 Bohr mag/cell

     iteration # 27     ecut=   100.00 Ry     beta= 0.40
     Davidson diagonalization with overlap
     ethr =  8.33E-12,  avg # of iterations =  2.4

     negative rho (up, down):  0.000E+00 8.706E-04

     total cpu time spent up to now is   164625.4 secs

     total energy              =   -2126.09593351 Ry
     estimated scf accuracy    <       0.00000002 Ry

     total magnetization       =    19.00 Bohr mag/cell
     absolute magnetization    =    19.04 Bohr mag/cell

     iteration # 28     ecut=   100.00 Ry     beta= 0.40
     Davidson diagonalization with overlap
     ethr =  8.33E-12,  avg # of iterations =  2.0

     negative rho (up, down):  0.000E+00 8.706E-04

     total cpu time spent up to now is   170249.7 secs

     total energy              =   -2126.09593351 Ry
     estimated scf accuracy    <       0.00000001 Ry

     total magnetization       =    19.00 Bohr mag/cell
     absolute magnetization    =    19.04 Bohr mag/cell

     iteration # 29     ecut=   100.00 Ry     beta= 0.40
     Davidson diagonalization with overlap
     ethr =  5.68E-12,  avg # of iterations =  1.0

     negative rho (up, down):  0.000E+00 8.706E-04

     total cpu time spent up to now is   175526.0 secs

     total energy              =   -2126.09593351 Ry
     estimated scf accuracy    <          1.4E-09 Ry

     total magnetization       =    19.00 Bohr mag/cell
     absolute magnetization    =    19.04 Bohr mag/cell

     iteration # 30     ecut=   100.00 Ry     beta= 0.40
     Davidson diagonalization with overlap
     ethr =  7.64E-13,  avg # of iterations =  4.4

     negative rho (up, down):  0.000E+00 8.706E-04

     total cpu time spent up to now is   182970.9 secs

     total energy              =   -2126.09593351 Ry
     estimated scf accuracy    <          1.5E-09 Ry

     total magnetization       =    19.00 Bohr mag/cell
     absolute magnetization    =    19.04 Bohr mag/cell

     iteration # 31     ecut=   100.00 Ry     beta= 0.40
     Davidson diagonalization with overlap
     ethr =  7.64E-13,  avg # of iterations =  1.0

     negative rho (up, down):  0.000E+00 8.706E-04

     total cpu time spent up to now is   188262.4 secs

     total energy              =   -2126.09593351 Ry
     estimated scf accuracy    <          1.4E-09 Ry

     total magnetization       =    19.00 Bohr mag/cell
     absolute magnetization    =    19.04 Bohr mag/cell

     iteration # 32     ecut=   100.00 Ry     beta= 0.40
     Davidson diagonalization with overlap
     ethr =  7.51E-13,  avg # of iterations =  1.0

     negative rho (up, down):  0.000E+00 8.706E-04

     Magnetic moment per site:
     atom:    1    charge:    7.9477    magn:    0.0016    constr:    0.0000
     atom:    2    charge:   12.8416    magn:    3.6456    constr:    0.0000
     atom:    3    charge:   12.8611    magn:    3.5647    constr:    0.0000
     atom:    4    charge:   12.8527    magn:    3.6024    constr:    0.0000
     atom:    5    charge:   12.8481    magn:    3.6139    constr:    0.0000
     atom:    6    charge:    0.8078    magn:    0.0116    constr:    0.0000
     atom:    7    charge:    0.7988    magn:    0.0119    constr:    0.0000
     atom:    8    charge:    0.8058    magn:    0.0096    constr:    0.0000
     atom:    9    charge:    0.8000    magn:    0.0119    constr:    0.0000
     atom:   10    charge:    4.1876    magn:    0.1116    constr:    0.0000
     atom:   11    charge:    4.1730    magn:    0.1093    constr:    0.0000
     atom:   12    charge:    4.1607    magn:    0.1575    constr:    0.0000
     atom:   13    charge:    4.1685    magn:    0.1111    constr:    0.0000
     atom:   14    charge:    4.1893    magn:    0.1192    constr:    0.0000
     atom:   15    charge:    4.1853    magn:    0.0868    constr:    0.0000
     atom:   16    charge:    4.1824    magn:    0.1122    constr:    0.0000
     atom:   17    charge:    4.1722    magn:    0.1033    constr:    0.0000
     atom:   18    charge:    4.1763    magn:    0.1305    constr:    0.0000
     atom:   19    charge:    4.1620    magn:    0.1461    constr:    0.0000
     atom:   20    charge:    4.1614    magn:    0.1108    constr:    0.0000
     atom:   21    charge:    4.1717    magn:    0.1574    constr:    0.0000
     atom:   22    charge:    4.1803    magn:    0.1257    constr:    0.0000
     atom:   23    charge:    4.1580    magn:    0.1429    constr:    0.0000
     atom:   24    charge:    4.1606    magn:    0.1095    constr:    0.0000
     atom:   25    charge:    4.1577    magn:    0.1496    constr:    0.0000

     total cpu time spent up to now is   193551.1 secs

     End of self-consistent calculation

 ------ SPIN UP ------------


          k = 0.0000 0.0000 0.0000 ( 35837 PWs)   bands (ev):

   -85.0041 -84.9627 -84.7966 -84.5622 -51.0943 -51.0932 -51.0512 -50.9949
   -50.9188 -50.9111 -50.8713 -50.7758 -50.7404 -50.6037 -50.5483 -50.3811
   -44.2551 -16.4189 -16.2772 -16.2678 -16.2353 -16.0453 -15.9206 -15.7360
   -13.9233 -13.7311 -13.6705 -13.5677 -13.5491 -13.4475 -13.4277 -13.4093
   -13.3019 -13.2782 -13.2076 -13.1647  -4.2625  -3.7461  -3.5360  -3.2657
    -2.2040  -2.0479  -1.8554  -1.7645  -1.4510  -1.3021  -1.1709  -1.1286
    -1.0368  -1.0073  -0.9061  -0.7492  -0.0977   0.0192   0.1966   0.4237
     0.4773   0.5634   0.6798   0.7856   0.8097   0.8787   0.9038   0.9963
     1.2428   1.3649   1.4363   1.6029   1.7573   1.8808   1.8921   2.0273
     2.0604   2.1719   2.3122   2.3370   2.4673   2.5166   2.5618   2.6177
     2.8330   2.8908   2.9913   3.0963   3.1438   3.2333   3.2562   3.3768
     3.5716   3.6479   3.7484   3.7927   3.8361   3.9081   4.0740   4.1652
     4.1929   4.2378   4.4036   4.4816   4.4902   4.7129   4.9767   5.3340
     9.4239  11.3281  11.6715  12.2554  12.5175  13.3588  13.5324  13.6005
    13.6921  13.7991

     occupation numbers 
     1.0000   1.0000   1.0000   1.0000   1.0000   1.0000   1.0000   1.0000
     1.0000   1.0000   1.0000   1.0000   1.0000   1.0000   1.0000   1.0000
     1.0000   1.0000   1.0000   1.0000   1.0000   1.0000   1.0000   1.0000
     1.0000   1.0000   1.0000   1.0000   1.0000   1.0000   1.0000   1.0000
     1.0000   1.0000   1.0000   1.0000   1.0000   1.0000   1.0000   1.0000
     1.0000   1.0000   1.0000   1.0000   1.0000   1.0000   1.0000   1.0000
     1.0000   1.0000   1.0000   1.0000   1.0000   1.0000   1.0000   1.0000
     1.0000   1.0000   1.0000   1.0000   1.0000   1.0000   1.0000   1.0000
     1.0000   1.0000   1.0000   1.0000   1.0000   1.0000   1.0000   1.0000
     1.0000   1.0000   1.0000   1.0000   1.0000   1.0000   1.0000   1.0000
     1.0000   1.0000   1.0000   1.0000   1.0000   1.0000   1.0000   1.0000
     1.0000   1.0000   1.0000   1.0000   1.0000   1.0000   1.0000   1.0000
     1.0000   1.0000   1.0000   1.0000   1.0000   1.0000   1.0000   1.0000
     0.0000   0.0000   0.0000   0.0000   0.0000   0.0000   0.0000   0.0000
     0.0000   0.0000

          k = 0.0000 0.0000 0.2298 ( 35841 PWs)   bands (ev):

   -85.0041 -84.9627 -84.7966 -84.5622 -51.0943 -51.0932 -51.0512 -50.9949
   -50.9188 -50.9111 -50.8713 -50.7758 -50.7404 -50.6037 -50.5483 -50.3811
   -44.2551 -16.4205 -16.2955 -16.2546 -16.2221 -16.0352 -15.9121 -15.7349
   -13.9317 -13.7378 -13.6759 -13.5658 -13.5468 -13.4510 -13.4387 -13.4148
   -13.3191 -13.2739 -13.2148 -13.1583  -4.2299  -3.7316  -3.5320  -3.2565
    -2.1903  -2.0480  -1.8574  -1.7295  -1.4525  -1.3060  -1.1643  -1.1245
    -1.0170  -0.9996  -0.9390  -0.7281  -0.0818   0.0334   0.1939   0.4082
     0.4679   0.5778   0.6562   0.7193   0.8389   0.8958   0.9301   1.0022
     1.2232   1.3475   1.4713   1.6012   1.7438   1.8649   1.9190   2.0067
     2.0811   2.1756   2.2663   2.3531   2.4276   2.4804   2.5492   2.6434
     2.8064   2.8943   2.9858   3.0548   3.1628   3.1868   3.2725   3.3802
     3.5388   3.6771   3.7558   3.7813   3.8248   3.9042   4.0745   4.1516
     4.1782   4.2784   4.3892   4.4736   4.5074   4.7125   4.9746   5.3251
     9.5682  11.3954  11.7256  12.2873  12.5623  13.3135  13.4524  13.5839
    13.6390  13.7526

     occupation numbers 
     1.0000   1.0000   1.0000   1.0000   1.0000   1.0000   1.0000   1.0000
     1.0000   1.0000   1.0000   1.0000   1.0000   1.0000   1.0000   1.0000
     1.0000   1.0000   1.0000   1.0000   1.0000   1.0000   1.0000   1.0000
     1.0000   1.0000   1.0000   1.0000   1.0000   1.0000   1.0000   1.0000
     1.0000   1.0000   1.0000   1.0000   1.0000   1.0000   1.0000   1.0000
     1.0000   1.0000   1.0000   1.0000   1.0000   1.0000   1.0000   1.0000
     1.0000   1.0000   1.0000   1.0000   1.0000   1.0000   1.0000   1.0000
     1.0000   1.0000   1.0000   1.0000   1.0000   1.0000   1.0000   1.0000
     1.0000   1.0000   1.0000   1.0000   1.0000   1.0000   1.0000   1.0000
     1.0000   1.0000   1.0000   1.0000   1.0000   1.0000   1.0000   1.0000
     1.0000   1.0000   1.0000   1.0000   1.0000   1.0000   1.0000   1.0000
     1.0000   1.0000   1.0000   1.0000   1.0000   1.0000   1.0000   1.0000
     1.0000   1.0000   1.0000   1.0000   1.0000   1.0000   1.0000   1.0000
     0.0000   0.0000   0.0000   0.0000   0.0000   0.0000   0.0000   0.0000
     0.0000   0.0000

          k = 0.0000 0.0000 0.4597 ( 35884 PWs)   bands (ev):

   -85.0041 -84.9627 -84.7966 -84.5622 -51.0943 -51.0932 -51.0512 -50.9949
   -50.9188 -50.9111 -50.8713 -50.7758 -50.7404 -50.6037 -50.5483 -50.3811
   -44.2551 -16.4252 -16.3129 -16.2492 -16.1867 -16.0100 -15.8898 -15.7337
   -13.9533 -13.7602 -13.6862 -13.5617 -13.5416 -13.4719 -13.4560 -13.4296
   -13.3418 -13.2777 -13.2268 -13.1489  -4.1441  -3.6913  -3.5198  -3.2493
    -2.1802  -2.0186  -1.8222  -1.6820  -1.4573  -1.3139  -1.1697  -1.1075
    -1.0021  -0.9791  -0.9328  -0.7108  -0.0584   0.0762   0.2123   0.3693
     0.4479   0.5664   0.6589   0.7062   0.8269   0.9058   0.9618   1.0532
     1.1872   1.3483   1.4694   1.5955   1.7239   1.8286   1.9310   1.9693
     2.0956   2.1489   2.1879   2.2899   2.3812   2.4502   2.5297   2.6534
     2.7674   2.8797   2.9088   2.9997   3.0750   3.2164   3.3255   3.3968
     3.5076   3.7011   3.7207   3.7870   3.8434   3.9176   4.0509   4.1397
     4.1776   4.3047   4.3848   4.4695   4.5340   4.7089   4.9711   5.3044
     9.9585  11.5663  11.8469  12.3904  12.6718  13.0689  13.3469  13.4585
    13.5449  13.6745

     occupation numbers 
     1.0000   1.0000   1.0000   1.0000   1.0000   1.0000   1.0000   1.0000
     1.0000   1.0000   1.0000   1.0000   1.0000   1.0000   1.0000   1.0000
     1.0000   1.0000   1.0000   1.0000   1.0000   1.0000   1.0000   1.0000
     1.0000   1.0000   1.0000   1.0000   1.0000   1.0000   1.0000   1.0000
     1.0000   1.0000   1.0000   1.0000   1.0000   1.0000   1.0000   1.0000
     1.0000   1.0000   1.0000   1.0000   1.0000   1.0000   1.0000   1.0000
     1.0000   1.0000   1.0000   1.0000   1.0000   1.0000   1.0000   1.0000
     1.0000   1.0000   1.0000   1.0000   1.0000   1.0000   1.0000   1.0000
     1.0000   1.0000   1.0000   1.0000   1.0000   1.0000   1.0000   1.0000
     1.0000   1.0000   1.0000   1.0000   1.0000   1.0000   1.0000   1.0000
     1.0000   1.0000   1.0000   1.0000   1.0000   1.0000   1.0000   1.0000
     1.0000   1.0000   1.0000   1.0000   1.0000   1.0000   1.0000   1.0000
     1.0000   1.0000   1.0000   1.0000   1.0000   1.0000   1.0000   1.0000
     0.0000   0.0000   0.0000   0.0000   0.0000   0.0000   0.0000   0.0000
     0.0000   0.0000

          k = 0.0000 0.0000 0.6895 ( 35896 PWs)   bands (ev):

   -85.0041 -84.9627 -84.7966 -84.5622 -51.0943 -51.0932 -51.0512 -50.9949
   -50.9188 -50.9111 -50.8713 -50.7758 -50.7404 -50.6037 -50.5484 -50.3811
   -44.2551 -16.4320 -16.3231 -16.2466 -16.1481 -15.9802 -15.8629 -15.7364
   -13.9781 -13.7936 -13.6936 -13.5573 -13.5380 -13.5094 -13.4647 -13.4451
   -13.3567 -13.2842 -13.2356 -13.1452  -4.0392  -3.6364  -3.5036  -3.2711
    -2.1917  -1.9579  -1.7478  -1.6578  -1.4650  -1.3195  -1.2055  -1.1005
    -0.9887  -0.9287  -0.8729  -0.7267  -0.0582   0.1359   0.2721   0.3317
     0.4687   0.5707   0.6543   0.7600   0.8507   0.9197   0.9896   1.0675
     1.1800   1.3477   1.4046   1.5818   1.6966   1.7685   1.8171   1.8982
     1.9687   2.0976   2.2056   2.2283   2.3777   2.4509   2.4928   2.6213
     2.7570   2.7702   2.8646   2.9111   3.0589   3.2682   3.3834   3.4246
     3.4946   3.6804   3.7115   3.8005   3.9102   3.9351   4.0369   4.1174
     4.1674   4.2948   4.4065   4.4856   4.5553   4.7025   4.9705   5.2819
    10.5007  11.7483  11.9562  12.4561  12.6270  12.9687  13.2043  13.2831
    13.4529  13.5805

     occupation numbers 
     1.0000   1.0000   1.0000   1.0000   1.0000   1.0000   1.0000   1.0000
     1.0000   1.0000   1.0000   1.0000   1.0000   1.0000   1.0000   1.0000
     1.0000   1.0000   1.0000   1.0000   1.0000   1.0000   1.0000   1.0000
     1.0000   1.0000   1.0000   1.0000   1.0000   1.0000   1.0000   1.0000
     1.0000   1.0000   1.0000   1.0000   1.0000   1.0000   1.0000   1.0000
     1.0000   1.0000   1.0000   1.0000   1.0000   1.0000   1.0000   1.0000
     1.0000   1.0000   1.0000   1.0000   1.0000   1.0000   1.0000   1.0000
     1.0000   1.0000   1.0000   1.0000   1.0000   1.0000   1.0000   1.0000
     1.0000   1.0000   1.0000   1.0000   1.0000   1.0000   1.0000   1.0000
     1.0000   1.0000   1.0000   1.0000   1.0000   1.0000   1.0000   1.0000
     1.0000   1.0000   1.0000   1.0000   1.0000   1.0000   1.0000   1.0000
     1.0000   1.0000   1.0000   1.0000   1.0000   1.0000   1.0000   1.0000
     1.0000   1.0000   1.0000   1.0000   1.0000   1.0000   1.0000   1.0000
     0.0000   0.0000   0.0000   0.0000   0.0000   0.0000   0.0000   0.0000
     0.0000   0.0000

          k = 0.0000 0.0000 0.9194 ( 35906 PWs)   bands (ev):

   -85.0041 -84.9627 -84.7966 -84.5622 -51.0943 -51.0932 -51.0512 -50.9949
   -50.9188 -50.9111 -50.8713 -50.7758 -50.7404 -50.6037 -50.5484 -50.3811
   -44.2551 -16.4371 -16.3270 -16.2453 -16.1233 -15.9588 -15.8440 -15.7419
   -13.9939 -13.8192 -13.6972 -13.5543 -13.5391 -13.5335 -13.4733 -13.4508
   -13.3636 -13.2872 -13.2396 -13.1457  -3.9645  -3.5936  -3.4862  -3.3108
    -2.1999  -1.9192  -1.6841  -1.6497  -1.4694  -1.3265  -1.2431  -1.0868
    -0.9501  -0.9044  -0.8398  -0.7508  -0.0617   0.1892   0.2654   0.3488
     0.5417   0.5954   0.7086   0.8071   0.8739   0.9201   0.9928   1.0868
     1.1867   1.2960   1.3209   1.5450   1.6055   1.6867   1.7600   1.8855
     1.9243   1.9935   2.1100   2.2546   2.3780   2.4911   2.5284   2.5855
     2.6796   2.7431   2.8300   2.8698   3.0703   3.2944   3.3955   3.4204
     3.5518   3.6544   3.7282   3.8248   3.8837   3.9944   4.0477   4.1074
     4.1397   4.2765   4.4264   4.5076   4.5645   4.6975   4.9737   5.2656
    11.0758  11.7126  11.9994  12.1887  12.6890  13.1001  13.1585  13.2285
    13.3727  13.4415

     occupation numbers 
     1.0000   1.0000   1.0000   1.0000   1.0000   1.0000   1.0000   1.0000
     1.0000   1.0000   1.0000   1.0000   1.0000   1.0000   1.0000   1.0000
     1.0000   1.0000   1.0000   1.0000   1.0000   1.0000   1.0000   1.0000
     1.0000   1.0000   1.0000   1.0000   1.0000   1.0000   1.0000   1.0000
     1.0000   1.0000   1.0000   1.0000   1.0000   1.0000   1.0000   1.0000
     1.0000   1.0000   1.0000   1.0000   1.0000   1.0000   1.0000   1.0000
     1.0000   1.0000   1.0000   1.0000   1.0000   1.0000   1.0000   1.0000
     1.0000   1.0000   1.0000   1.0000   1.0000   1.0000   1.0000   1.0000
     1.0000   1.0000   1.0000   1.0000   1.0000   1.0000   1.0000   1.0000
     1.0000   1.0000   1.0000   1.0000   1.0000   1.0000   1.0000   1.0000
     1.0000   1.0000   1.0000   1.0000   1.0000   1.0000   1.0000   1.0000
     1.0000   1.0000   1.0000   1.0000   1.0000   1.0000   1.0000   1.0000
     1.0000   1.0000   1.0000   1.0000   1.0000   1.0000   1.0000   1.0000
     0.0000   0.0000   0.0000   0.0000   0.0000   0.0000   0.0000   0.0000
     0.0000   0.0000

          k = 0.0000 0.2351 0.0000 ( 35823 PWs)   bands (ev):

   -85.0041 -84.9627 -84.7966 -84.5622 -51.0943 -51.0932 -51.0512 -50.9949
   -50.9188 -50.9111 -50.8713 -50.7758 -50.7404 -50.6037 -50.5483 -50.3811
   -44.2551 -16.4370 -16.2935 -16.2582 -16.2100 -16.0246 -15.9175 -15.7492
   -13.9298 -13.7371 -13.6706 -13.5846 -13.5461 -13.4484 -13.4222 -13.4092
   -13.3051 -13.2797 -13.2054 -13.1628  -4.2282  -3.7181  -3.5488  -3.2645
    -2.1810  -2.0119  -1.8571  -1.7452  -1.4473  -1.3131  -1.1601  -1.1251
    -1.0470  -0.9721  -0.8927  -0.7396  -0.1083   0.0068   0.1843   0.3799
     0.4215   0.5646   0.6386   0.6994   0.8130   0.8875   0.9822   1.0708
     1.2334   1.3707   1.4177   1.6255   1.7651   1.8284   1.8988   1.9814
     2.0076   2.1474   2.2707   2.3353   2.4397   2.4933   2.5601   2.6828
     2.8345   2.8875   2.9890   3.0245   3.1578   3.1944   3.2913   3.3569
     3.5566   3.6544   3.6947   3.7911   3.8627   3.9065   4.0687   4.1204
     4.1839   4.2415   4.3841   4.4624   4.5870   4.8060   5.0449   5.3405
     9.5784  11.4063  11.7651  12.1912  12.5123  13.2702  13.4023  13.5485
    13.7381  13.8430

     occupation numbers 
     1.0000   1.0000   1.0000   1.0000   1.0000   1.0000   1.0000   1.0000
     1.0000   1.0000   1.0000   1.0000   1.0000   1.0000   1.0000   1.0000
     1.0000   1.0000   1.0000   1.0000   1.0000   1.0000   1.0000   1.0000
     1.0000   1.0000   1.0000   1.0000   1.0000   1.0000   1.0000   1.0000
     1.0000   1.0000   1.0000   1.0000   1.0000   1.0000   1.0000   1.0000
     1.0000   1.0000   1.0000   1.0000   1.0000   1.0000   1.0000   1.0000
     1.0000   1.0000   1.0000   1.0000   1.0000   1.0000   1.0000   1.0000
     1.0000   1.0000   1.0000   1.0000   1.0000   1.0000   1.0000   1.0000
     1.0000   1.0000   1.0000   1.0000   1.0000   1.0000   1.0000   1.0000
     1.0000   1.0000   1.0000   1.0000   1.0000   1.0000   1.0000   1.0000
     1.0000   1.0000   1.0000   1.0000   1.0000   1.0000   1.0000   1.0000
     1.0000   1.0000   1.0000   1.0000   1.0000   1.0000   1.0000   1.0000
     1.0000   1.0000   1.0000   1.0000   1.0000   1.0000   1.0000   1.0000
     0.0000   0.0000   0.0000   0.0000   0.0000   0.0000   0.0000   0.0000
     0.0000   0.0000

          k = 0.0000 0.2351 0.2298 ( 35841 PWs)   bands (ev):

   -85.0041 -84.9627 -84.7966 -84.5622 -51.0943 -51.0932 -51.0512 -50.9949
   -50.9188 -50.9111 -50.8713 -50.7758 -50.7404 -50.6037 -50.5483 -50.3811
   -44.2551 -16.4258 -16.3199 -16.2520 -16.1988 -16.0132 -15.9124 -15.7402
   -13.9366 -13.7470 -13.6805 -13.5769 -13.5463 -13.4575 -13.4407 -13.4120
   -13.3026 -13.2771 -13.2125 -13.1628  -4.2032  -3.7045  -3.5370  -3.2484
    -2.1688  -2.0126  -1.8641  -1.7055  -1.4370  -1.2846  -1.1936  -1.0816
    -1.0621  -0.9907  -0.9285  -0.7009  -0.0874   0.0153   0.1747   0.3802
     0.4582   0.5786   0.6204   0.7076   0.7756   0.8594   0.9820   1.0765
     1.1939   1.3235   1.4240   1.6196   1.7272   1.8412   1.8853   2.0252
     2.0629   2.1328   2.2274   2.3685   2.4549   2.4812   2.5593   2.6793
     2.8282   2.9024   2.9604   3.0121   3.1342   3.1570   3.2681   3.3524
     3.5471   3.6284   3.7221   3.7815   3.8167   3.9476   4.0399   4.1253
     4.1723   4.2710   4.3824   4.4889   4.5829   4.8130   5.0451   5.3271
     9.7173  11.4832  11.8191  12.2091  12.5581  13.2765  13.3424  13.5629
    13.6391  13.7531

     occupation numbers 
     1.0000   1.0000   1.0000   1.0000   1.0000   1.0000   1.0000   1.0000
     1.0000   1.0000   1.0000   1.0000   1.0000   1.0000   1.0000   1.0000
     1.0000   1.0000   1.0000   1.0000   1.0000   1.0000   1.0000   1.0000
     1.0000   1.0000   1.0000   1.0000   1.0000   1.0000   1.0000   1.0000
     1.0000   1.0000   1.0000   1.0000   1.0000   1.0000   1.0000   1.0000
     1.0000   1.0000   1.0000   1.0000   1.0000   1.0000   1.0000   1.0000
     1.0000   1.0000   1.0000   1.0000   1.0000   1.0000   1.0000   1.0000
     1.0000   1.0000   1.0000   1.0000   1.0000   1.0000   1.0000   1.0000
     1.0000   1.0000   1.0000   1.0000   1.0000   1.0000   1.0000   1.0000
     1.0000   1.0000   1.0000   1.0000   1.0000   1.0000   1.0000   1.0000
     1.0000   1.0000   1.0000   1.0000   1.0000   1.0000   1.0000   1.0000
     1.0000   1.0000   1.0000   1.0000   1.0000   1.0000   1.0000   1.0000
     1.0000   1.0000   1.0000   1.0000   1.0000   1.0000   1.0000   1.0000
     0.0000   0.0000   0.0000   0.0000   0.0000   0.0000   0.0000   0.0000
     0.0000   0.0000

          k = 0.0000 0.2351 0.4597 ( 35884 PWs)   bands (ev):

   -85.0041 -84.9627 -84.7966 -84.5622 -51.0943 -51.0932 -51.0512 -50.9949
   -50.9188 -50.9111 -50.8713 -50.7758 -50.7404 -50.6037 -50.5483 -50.3811
   -44.2551 -16.4170 -16.3442 -16.2500 -16.1703 -15.9881 -15.8931 -15.7308
   -13.9575 -13.7644 -13.6988 -13.5706 -13.5462 -13.4854 -13.4577 -13.4218
   -13.3270 -13.2727 -13.2240 -13.1552  -4.1240  -3.6668  -3.5180  -3.2256
    -2.1632  -2.0020  -1.8166  -1.6577  -1.4377  -1.2496  -1.2224  -1.0693
    -1.0203  -1.0043  -0.9460  -0.6736  -0.0839   0.0596   0.1973   0.3711
     0.4715   0.5484   0.6346   0.6755   0.7708   0.8766   0.9905   1.0898
     1.1650   1.2983   1.4114   1.5893   1.7139   1.8132   1.8803   2.0026
     2.0865   2.1444   2.1683   2.3113   2.4244   2.4733   2.5449   2.6880
     2.7707   2.8579   2.9372   2.9761   3.0526   3.1477   3.2820   3.3546
     3.5314   3.5990   3.7195   3.7540   3.8391   3.9696   4.0297   4.1212
     4.1893   4.2843   4.4054   4.4908   4.5963   4.8205   5.0311   5.3088
    10.0931  11.6601  11.9296  12.3017  12.6756  13.0746  13.2784  13.4863
    13.5254  13.6588

     occupation numbers 
     1.0000   1.0000   1.0000   1.0000   1.0000   1.0000   1.0000   1.0000
     1.0000   1.0000   1.0000   1.0000   1.0000   1.0000   1.0000   1.0000
     1.0000   1.0000   1.0000   1.0000   1.0000   1.0000   1.0000   1.0000
     1.0000   1.0000   1.0000   1.0000   1.0000   1.0000   1.0000   1.0000
     1.0000   1.0000   1.0000   1.0000   1.0000   1.0000   1.0000   1.0000
     1.0000   1.0000   1.0000   1.0000   1.0000   1.0000   1.0000   1.0000
     1.0000   1.0000   1.0000   1.0000   1.0000   1.0000   1.0000   1.0000
     1.0000   1.0000   1.0000   1.0000   1.0000   1.0000   1.0000   1.0000
     1.0000   1.0000   1.0000   1.0000   1.0000   1.0000   1.0000   1.0000
     1.0000   1.0000   1.0000   1.0000   1.0000   1.0000   1.0000   1.0000
     1.0000   1.0000   1.0000   1.0000   1.0000   1.0000   1.0000   1.0000
     1.0000   1.0000   1.0000   1.0000   1.0000   1.0000   1.0000   1.0000
     1.0000   1.0000   1.0000   1.0000   1.0000   1.0000   1.0000   1.0000
     0.0000   0.0000   0.0000   0.0000   0.0000   0.0000   0.0000   0.0000
     0.0000   0.0000

          k = 0.0000 0.2351 0.6895 ( 35919 PWs)   bands (ev):

   -85.0041 -84.9627 -84.7966 -84.5622 -51.0943 -51.0932 -51.0512 -50.9949
   -50.9188 -50.9111 -50.8713 -50.7758 -50.7404 -50.6037 -50.5484 -50.3811
   -44.2551 -16.4200 -16.3531 -16.2487 -16.1367 -15.9604 -15.8672 -15.7280
   -13.9824 -13.7909 -13.7124 -13.5696 -13.5517 -13.5146 -13.4631 -13.4373
   -13.3480 -13.2771 -13.2321 -13.1493  -4.0209  -3.6146  -3.5034  -3.2282
    -2.1805  -1.9527  -1.7394  -1.6311  -1.4465  -1.2720  -1.2172  -1.0913
    -0.9893  -0.9536  -0.9029  -0.6878  -0.0953   0.1049   0.2577   0.3542
     0.4955   0.5595   0.6013   0.7042   0.8218   0.9017   1.0078   1.1011
     1.1916   1.2765   1.3652   1.5458   1.7095   1.7350   1.8224   1.9136
     1.9838   2.1122   2.1636   2.2103   2.3871   2.4883   2.5519   2.6599
     2.7116   2.7710   2.8629   2.9393   3.0239   3.1843   3.3208   3.4132
     3.5074   3.5815   3.6787   3.8150   3.8625   3.9512   4.0642   4.0927
     4.2141   4.2812   4.4330   4.4854   4.6133   4.8278   5.0164   5.2932
    10.6174  11.8511  12.0141  12.4055  12.6293  12.9919  13.1562  13.3120
    13.4408  13.6261

     occupation numbers 
     1.0000   1.0000   1.0000   1.0000   1.0000   1.0000   1.0000   1.0000
     1.0000   1.0000   1.0000   1.0000   1.0000   1.0000   1.0000   1.0000
     1.0000   1.0000   1.0000   1.0000   1.0000   1.0000   1.0000   1.0000
     1.0000   1.0000   1.0000   1.0000   1.0000   1.0000   1.0000   1.0000
     1.0000   1.0000   1.0000   1.0000   1.0000   1.0000   1.0000   1.0000
     1.0000   1.0000   1.0000   1.0000   1.0000   1.0000   1.0000   1.0000
     1.0000   1.0000   1.0000   1.0000   1.0000   1.0000   1.0000   1.0000
     1.0000   1.0000   1.0000   1.0000   1.0000   1.0000   1.0000   1.0000
     1.0000   1.0000   1.0000   1.0000   1.0000   1.0000   1.0000   1.0000
     1.0000   1.0000   1.0000   1.0000   1.0000   1.0000   1.0000   1.0000
     1.0000   1.0000   1.0000   1.0000   1.0000   1.0000   1.0000   1.0000
     1.0000   1.0000   1.0000   1.0000   1.0000   1.0000   1.0000   1.0000
     1.0000   1.0000   1.0000   1.0000   1.0000   1.0000   1.0000   1.0000
     0.0000   0.0000   0.0000   0.0000   0.0000   0.0000   0.0000   0.0000
     0.0000   0.0000

          k = 0.0000 0.2351 0.9194 ( 35896 PWs)   bands (ev):

   -85.0041 -84.9627 -84.7966 -84.5622 -51.0943 -51.0932 -51.0512 -50.9949
   -50.9188 -50.9111 -50.8713 -50.7758 -50.7404 -50.6037 -50.5484 -50.3811
   -44.2551 -16.4316 -16.3475 -16.2482 -16.1130 -15.9387 -15.8476 -15.7356
   -13.9977 -13.8164 -13.7134 -13.5751 -13.5544 -13.5274 -13.4673 -13.4496
   -13.3601 -13.2808 -13.2362 -13.1459  -3.9385  -3.5673  -3.4957  -3.2697
    -2.1860  -1.9143  -1.6791  -1.6239  -1.4534  -1.3066  -1.2301  -1.0922
    -0.9564  -0.9041  -0.8516  -0.7272  -0.1075   0.1391   0.2698   0.3669
     0.5244   0.5815   0.6274   0.7560   0.8597   0.9700   0.9935   1.1261
     1.2134   1.2504   1.3055   1.5277   1.5971   1.6705   1.7635   1.8490
     1.9779   2.0016   2.1114   2.1958   2.3963   2.4837   2.5590   2.5908
     2.6741   2.7269   2.8109   2.8897   3.0490   3.2385   3.3535   3.4456
     3.5139   3.5660   3.6955   3.8101   3.8845   3.9562   4.0498   4.1247
     4.2183   4.2815   4.4183   4.5051   4.6189   4.8185   5.0239   5.2800
    11.1701  11.8348  12.0141  12.2668  12.6342  13.0505  13.1720  13.2433
    13.4007  13.5044

     occupation numbers 
     1.0000   1.0000   1.0000   1.0000   1.0000   1.0000   1.0000   1.0000
     1.0000   1.0000   1.0000   1.0000   1.0000   1.0000   1.0000   1.0000
     1.0000   1.0000   1.0000   1.0000   1.0000   1.0000   1.0000   1.0000
     1.0000   1.0000   1.0000   1.0000   1.0000   1.0000   1.0000   1.0000
     1.0000   1.0000   1.0000   1.0000   1.0000   1.0000   1.0000   1.0000
     1.0000   1.0000   1.0000   1.0000   1.0000   1.0000   1.0000   1.0000
     1.0000   1.0000   1.0000   1.0000   1.0000   1.0000   1.0000   1.0000
     1.0000   1.0000   1.0000   1.0000   1.0000   1.0000   1.0000   1.0000
     1.0000   1.0000   1.0000   1.0000   1.0000   1.0000   1.0000   1.0000
     1.0000   1.0000   1.0000   1.0000   1.0000   1.0000   1.0000   1.0000
     1.0000   1.0000   1.0000   1.0000   1.0000   1.0000   1.0000   1.0000
     1.0000   1.0000   1.0000   1.0000   1.0000   1.0000   1.0000   1.0000
     1.0000   1.0000   1.0000   1.0000   1.0000   1.0000   1.0000   1.0000
     0.0000   0.0000   0.0000   0.0000   0.0000   0.0000   0.0000   0.0000
     0.0000   0.0000

          k = 0.0000 0.4701 0.0000 ( 35853 PWs)   bands (ev):

   -85.0041 -84.9627 -84.7966 -84.5622 -51.0943 -51.0932 -51.0512 -50.9949
   -50.9188 -50.9111 -50.8713 -50.7758 -50.7404 -50.6037 -50.5483 -50.3811
   -44.2551 -16.4713 -16.3026 -16.2557 -16.1618 -15.9799 -15.9085 -15.7851
   -13.9429 -13.7483 -13.6858 -13.6059 -13.5372 -13.4501 -13.4210 -13.4036
   -13.3223 -13.2755 -13.2000 -13.1588  -4.1472  -3.6642  -3.5664  -3.2704
    -2.1213  -1.9269  -1.8474  -1.6984  -1.4392  -1.3414  -1.1636  -1.0787
    -1.0334  -0.9182  -0.8606  -0.7331  -0.1631  -0.0140   0.1263   0.2812
     0.3552   0.4866   0.5693   0.6452   0.7880   0.9083   1.0567   1.1520
     1.2709   1.3801   1.4004   1.6230   1.7205   1.7975   1.8760   1.9214
     1.9747   2.1282   2.2228   2.3004   2.3903   2.5076   2.5245   2.7326
     2.7832   2.8678   2.9369   3.0242   3.0764   3.2113   3.2678   3.3462
     3.5421   3.6161   3.6609   3.7949   3.8418   3.9450   4.0367   4.0756
     4.1677   4.2462   4.3727   4.4663   4.7301   4.9431   5.1939   5.3591
     9.9984  11.5972  11.8562  12.0519  12.4870  13.0439  13.3771  13.5035
    13.5560  13.8554

     occupation numbers 
     1.0000   1.0000   1.0000   1.0000   1.0000   1.0000   1.0000   1.0000
     1.0000   1.0000   1.0000   1.0000   1.0000   1.0000   1.0000   1.0000
     1.0000   1.0000   1.0000   1.0000   1.0000   1.0000   1.0000   1.0000
     1.0000   1.0000   1.0000   1.0000   1.0000   1.0000   1.0000   1.0000
     1.0000   1.0000   1.0000   1.0000   1.0000   1.0000   1.0000   1.0000
     1.0000   1.0000   1.0000   1.0000   1.0000   1.0000   1.0000   1.0000
     1.0000   1.0000   1.0000   1.0000   1.0000   1.0000   1.0000   1.0000
     1.0000   1.0000   1.0000   1.0000   1.0000   1.0000   1.0000   1.0000
     1.0000   1.0000   1.0000   1.0000   1.0000   1.0000   1.0000   1.0000
     1.0000   1.0000   1.0000   1.0000   1.0000   1.0000   1.0000   1.0000
     1.0000   1.0000   1.0000   1.0000   1.0000   1.0000   1.0000   1.0000
     1.0000   1.0000   1.0000   1.0000   1.0000   1.0000   1.0000   1.0000
     1.0000   1.0000   1.0000   1.0000   1.0000   1.0000   1.0000   1.0000
     0.0000   0.0000   0.0000   0.0000   0.0000   0.0000   0.0000   0.0000
     0.0000   0.0000

          k = 0.0000 0.4701 0.2298 ( 35845 PWs)   bands (ev):

   -85.0041 -84.9627 -84.7966 -84.5622 -51.0943 -51.0932 -51.0512 -50.9949
   -50.9188 -50.9111 -50.8713 -50.7758 -50.7404 -50.6037 -50.5483 -50.3811
   -44.2551 -16.4591 -16.3238 -16.2537 -16.1549 -15.9699 -15.9058 -15.7692
   -13.9471 -13.7612 -13.6950 -13.5974 -13.5454 -13.4551 -13.4375 -13.4148
   -13.3085 -13.2761 -13.2052 -13.1607  -4.1272  -3.6434  -3.5516  -3.2542
    -2.1076  -1.9392  -1.8340  -1.6711  -1.4275  -1.3219  -1.1340  -1.1137
    -1.0257  -0.9446  -0.8929  -0.6946  -0.1564  -0.0113   0.1204   0.2901
     0.4141   0.5209   0.5601   0.6247   0.8075   0.8364   1.0430   1.1202
     1.2075   1.3173   1.3925   1.6005   1.7394   1.7866   1.8665   1.9655
     2.0545   2.1402   2.2185   2.3460   2.4077   2.4789   2.5514   2.6966
     2.7651   2.8685   2.9395   3.0019   3.0582   3.1748   3.2067   3.3459
     3.5217   3.5952   3.7118   3.7698   3.8037   3.9440   4.0020   4.1283
     4.1546   4.2551   4.3843   4.4959   4.7520   4.9259   5.2099   5.3391
    10.1215  11.6724  11.8988  12.0956  12.5228  13.0984  13.3126  13.5088
[...]
     atom    9 type  4   force =     0.03311381   -0.00176449   -0.00080807
     atom   10 type  3   force =     0.00153674    0.00337511    0.00574325
     atom   11 type  3   force =     0.00189716   -0.00192245   -0.00179016
     atom   12 type  3   force =    -0.00399148    0.00059965   -0.00438896
     atom   13 type  3   force =     0.00120238    0.00211516   -0.00362027
     atom   14 type  3   force =    -0.03806987    0.00216999    0.00448862
     atom   15 type  3   force =     0.02956528   -0.01486206   -0.00289245
     atom   16 type  3   force =     0.04020092   -0.00116515   -0.00633674
     atom   17 type  3   force =    -0.03353468    0.01355620    0.00066823
     atom   18 type  3   force =     0.00558180    0.00687832    0.00306482
     atom   19 type  3   force =    -0.00340701   -0.00402352   -0.00411944
     atom   20 type  3   force =     0.00224366   -0.00199751   -0.00121085
     atom   21 type  3   force =     0.00040950    0.00052723   -0.00243587
     atom   22 type  3   force =    -0.00297194   -0.00472112    0.00030950
     atom   23 type  3   force =     0.00417971    0.00117687    0.00228048
     atom   24 type  3   force =    -0.00374780    0.00724837   -0.00089482
     atom   25 type  3   force =    -0.00217564    0.00164929   -0.00152065
     The non-local contrib.  to forces
     atom    1 type  2   force =    -0.07824250    0.00024358   -0.03230016
     atom    2 type  1   force =     0.06811401   -0.13379221   -0.06177179
     atom    3 type  1   force =    -0.00386504   -0.10347442    0.15580557
     atom    4 type  1   force =    -0.05885995    0.11246742    0.17897120
     atom    5 type  1   force =     0.01191248    0.10974657   -0.06585586
     atom    6 type  4   force =    -0.01495008    0.04570079    0.01684022
     atom    7 type  4   force =    -0.06211752    0.02375518   -0.05071268
     atom    8 type  4   force =    -0.02093701   -0.02658719   -0.02296349
     atom    9 type  4   force =     0.05138867   -0.01450879    0.04426459
     atom   10 type  3   force =    -0.33745296   -0.10524711   -1.20331978
     atom   11 type  3   force =    -0.05163103    0.18172175   -1.42304177
     atom   12 type  3   force =     0.45884467    0.09546045    1.20295003
     atom   13 type  3   force =    -0.02627977   -0.21686659    1.41275592
     atom   14 type  3   force =     1.33366652   -0.16813803   -0.56709999
     atom   15 type  3   force =    -1.20905251    0.70497203   -0.09632168
     atom   16 type  3   force =    -1.38929138    0.12356492    0.58716215
     atom   17 type  3   force =     1.17579786   -0.72326903    0.23091635
     atom   18 type  3   force =    -0.39421911   -1.36738930    0.64414255
     atom   19 type  3   force =     0.51688343    0.78635389    0.96518270
     atom   20 type  3   force =    -0.05955386   -1.45073266   -0.98721601
     atom   21 type  3   force =    -0.09909536    1.04070241   -0.64594033
     atom   22 type  3   force =     0.33742028    1.28165864   -0.69767656
     atom   23 type  3   force =    -0.56372686   -0.72387753   -1.00851792
     atom   24 type  3   force =     0.09083116    1.46652631    1.04020344
     atom   25 type  3   force =     0.27566163   -1.00815359    0.66294587
     The ionic contribution  to forces
     atom    1 type  2   force =    -1.98158981    3.70969876    2.25767877
     atom    2 type  1   force =    13.49238791   -0.22732105   -1.25988946
     atom    3 type  1   force =     3.74343468   -6.51005464   -3.61297372
     atom    4 type  1   force =   -10.29896948   -3.96312477    3.48184113
     atom    5 type  1   force =    -7.41250101    7.91272692    1.44667464
     atom    6 type  4   force =    -0.02504158    1.25661104   -0.89539755
     atom    7 type  4   force =     3.53900007   -0.03145298    1.06613915
     atom    8 type  4   force =     1.26545643   -2.46813479    0.90661617
     atom    9 type  4   force =    -3.73468587    0.72918757   -1.29691996
     atom   10 type  3   force =    -0.55344511    1.62054233   -1.48031664
     atom   11 type  3   force =     8.24711834   -2.30590881    1.94503446
     atom   12 type  3   force =     1.72061946   -6.80164520   -1.26072403
     atom   13 type  3   force =    -8.41942078    3.62132366   -2.01680928
     atom   14 type  3   force =     1.31875760    0.60553612    7.15602157
     atom   15 type  3   force =    -0.38654739   -4.09098352    2.54672213
     atom   16 type  3   force =    -0.53155339   -0.65016266   -7.55581607
     atom   17 type  3   force =     0.15905864    6.78002599   -3.83468777
     atom   18 type  3   force =    -1.03098422    8.11910434    4.12293270
     atom   19 type  3   force =     4.98159258   -0.84169436   -4.22186227
     atom   20 type  3   force =     3.01416826    2.08769754    8.65752292
     atom   21 type  3   force =    -9.66982510   -0.92319146    0.23807797
     atom   22 type  3   force =     2.32221460   -6.02361142   -1.53232640
     atom   23 type  3   force =    -3.79450176    1.20086266    4.72277248
     atom   24 type  3   force =    -3.79624944   -4.27007431   -8.70618766
     atom   25 type  3   force =     7.83150639    1.46404303   -0.87412328
     The local contribution  to forces
     atom    1 type  2   force =     2.05677662   -3.71258177   -2.21552095
     atom    2 type  1   force =   -13.55914739    0.35789625    1.31624497
     atom    3 type  1   force =    -3.73567480    6.60806968    3.45847749
     atom    4 type  1   force =    10.35530153    3.85209412   -3.65235177
     atom    5 type  1   force =     7.39917484   -8.02564567   -1.38215917
     atom    6 type  4   force =     0.06194397   -1.31133893    0.87794477
     atom    7 type  4   force =    -3.51604920    0.01229270   -1.01739871
     atom    8 type  4   force =    -1.26413747    2.50298049   -0.88177448
     atom    9 type  4   force =     3.72059301   -0.71726111    1.25401643
     atom   10 type  3   force =     0.89009685   -1.51277220    2.67910933
     atom   11 type  3   force =    -8.19474511    2.12401654   -0.53611727
     atom   12 type  3   force =    -2.17986152    6.70752011    0.06378737
     atom   13 type  3   force =     8.44743066   -3.40451726    0.61261437
     atom   14 type  3   force =    -2.67978428   -0.43672780   -6.58986292
     atom   15 type  3   force =     1.61549794    3.37744341   -2.45469739
     atom   16 type  3   force =     1.94986216    0.52652591    6.96795758
     atom   17 type  3   force =    -1.35890615   -6.04986364    3.60696173
     atom   18 type  3   force =     1.42790092   -6.75723920   -4.75864217
     atom   19 type  3   force =    -5.49743817    0.05778077    3.26126749
     atom   20 type  3   force =    -2.95308289   -0.65158374   -7.68065978
     atom   21 type  3   force =     9.76865704   -0.10801772    0.39960500
     atom   22 type  3   force =    -2.66025188    4.74885539    2.22448504
     atom   23 type  3   force =     4.35758614   -0.48169476   -3.72104700
     atom   24 type  3   force =     3.70272373    2.82352650    7.67478179
     atom   25 type  3   force =    -8.10699588   -0.46289234    0.21565297
     The core correction contribution to forces
     atom    1 type  2   force =     0.00000000    0.00000000    0.00000000
     atom    2 type  1   force =    -0.00234943    0.00194650    0.00120288
     atom    3 type  1   force =     0.00031556    0.00129102   -0.00101847
     atom    4 type  1   force =     0.00259803   -0.00081241   -0.00185499
     atom    5 type  1   force =    -0.00108208    0.00070152   -0.00090032
     atom    6 type  4   force =     0.00161685   -0.00200885   -0.00046603
     atom    7 type  4   force =     0.00483436   -0.00196792    0.00301028
     atom    8 type  4   force =     0.00061578    0.00123248    0.00132587
     atom    9 type  4   force =    -0.00418349    0.00081868   -0.00216973
     atom   10 type  3   force =     0.00233854    0.00085410    0.01027102
     atom   11 type  3   force =     0.00116245   -0.00175332    0.01232955
     atom   12 type  3   force =    -0.00359832   -0.00074099   -0.01040534
     atom   13 type  3   force =    -0.00053198    0.00217709   -0.01217723
     atom   14 type  3   force =    -0.01070816    0.00150027    0.00542914
     atom   15 type  3   force =     0.00966096   -0.00629505    0.00140674
     atom   16 type  3   force =     0.01118836   -0.00109374   -0.00563849
     atom   17 type  3   force =    -0.00948191    0.00666460   -0.00252388
     atom   18 type  3   force =     0.00288535    0.01240138   -0.00536938
     atom   19 type  3   force =    -0.00444007   -0.00646756   -0.00870456
     atom   20 type  3   force =     0.00071232    0.01261911    0.00914499
     atom   21 type  3   force =     0.00067058   -0.00897146    0.00581761
     atom   22 type  3   force =    -0.00235983   -0.01162217    0.00582926
     atom   23 type  3   force =     0.00481990    0.00589353    0.00907014
     atom   24 type  3   force =    -0.00105616   -0.01272654   -0.00969649
     atom   25 type  3   force =    -0.00234227    0.00865499   -0.00599242
     The Hubbard contrib.    to forces
     atom    1 type  2   force =     0.00000000    0.00000000    0.00000000
     atom    2 type  1   force =     0.00000000    0.00000000    0.00000000
     atom    3 type  1   force =     0.00000000    0.00000000    0.00000000
     atom    4 type  1   force =     0.00000000    0.00000000    0.00000000
     atom    5 type  1   force =     0.00000000    0.00000000    0.00000000
     atom    6 type  4   force =     0.00000000    0.00000000    0.00000000
     atom    7 type  4   force =     0.00000000    0.00000000    0.00000000
     atom    8 type  4   force =     0.00000000    0.00000000    0.00000000
     atom    9 type  4   force =     0.00000000    0.00000000    0.00000000
     atom   10 type  3   force =     0.00000000    0.00000000    0.00000000
     atom   11 type  3   force =     0.00000000    0.00000000    0.00000000
     atom   12 type  3   force =     0.00000000    0.00000000    0.00000000
     atom   13 type  3   force =     0.00000000    0.00000000    0.00000000
     atom   14 type  3   force =     0.00000000    0.00000000    0.00000000
     atom   15 type  3   force =     0.00000000    0.00000000    0.00000000
     atom   16 type  3   force =     0.00000000    0.00000000    0.00000000
     atom   17 type  3   force =     0.00000000    0.00000000    0.00000000
     atom   18 type  3   force =     0.00000000    0.00000000    0.00000000
     atom   19 type  3   force =     0.00000000    0.00000000    0.00000000
     atom   20 type  3   force =     0.00000000    0.00000000    0.00000000
     atom   21 type  3   force =     0.00000000    0.00000000    0.00000000
     atom   22 type  3   force =     0.00000000    0.00000000    0.00000000
     atom   23 type  3   force =     0.00000000    0.00000000    0.00000000
     atom   24 type  3   force =     0.00000000    0.00000000    0.00000000
     atom   25 type  3   force =     0.00000000    0.00000000    0.00000000
     The SCF correction term to forces
     atom    1 type  2   force =     0.00000055   -0.00000086   -0.00000124
     atom    2 type  1   force =    -0.00000538   -0.00000122   -0.00000226
     atom    3 type  1   force =    -0.00000313   -0.00000066   -0.00000033
     atom    4 type  1   force =     0.00000375    0.00000219    0.00000279
     atom    5 type  1   force =     0.00000563    0.00000226    0.00000061
     atom    6 type  4   force =    -0.00000063   -0.00000143    0.00000072
     atom    7 type  4   force =    -0.00000416    0.00000045   -0.00000067
     atom    8 type  4   force =     0.00000261    0.00000188   -0.00000111
     atom    9 type  4   force =     0.00000156   -0.00000085    0.00000042
     atom   10 type  3   force =    -0.00000052   -0.00000203   -0.00000085
     atom   11 type  3   force =    -0.00000742    0.00000139    0.00000470
     atom   12 type  3   force =     0.00000430    0.00000526    0.00000284
     atom   13 type  3   force =     0.00000433   -0.00000174   -0.00000423
     atom   14 type  3   force =    -0.00000147   -0.00000059    0.00000065
     atom   15 type  3   force =     0.00000636    0.00000107   -0.00000242
     atom   16 type  3   force =    -0.00000475    0.00000041   -0.00000207
     atom   17 type  3   force =    -0.00000306   -0.00000173    0.00000162
     atom   18 type  3   force =    -0.00000107    0.00000109    0.00000095
     atom   19 type  3   force =    -0.00000472    0.00000372   -0.00000297
     atom   20 type  3   force =    -0.00000010    0.00000223   -0.00000315
     atom   21 type  3   force =     0.00000241    0.00000545    0.00000369
     atom   22 type  3   force =     0.00000496   -0.00000158   -0.00000202
     atom   23 type  3   force =     0.00000235   -0.00000704    0.00000260
     atom   24 type  3   force =     0.00000298   -0.00000362    0.00000393
     atom   25 type  3   force =    -0.00000542   -0.00000282   -0.00000397

     Total force =     0.097955     Total SCF correction =     0.000027


     Computing stress (Cartesian axis) and pressure


     negative rho (up, down):  0.000E+00 8.706E-04
          total   stress  (Ry/bohr**3)                   (kbar)     P=       44.40
   0.00026364   0.00001452   0.00001701           38.78        2.14        2.50
   0.00001452   0.00031930  -0.00011737            2.14       46.97      -17.27
   0.00001701  -0.00011737   0.00032253            2.50      -17.27       47.45

     kinetic stress (kbar)  27060.86     69.93    -42.29
                               69.93  27175.54     -8.28
                              -42.29     -8.28  27148.95

     local   stress (kbar)  -8386.60   3694.79  -7373.05
                             3694.79 -14217.51    627.69
                            -7373.05    627.69  -5364.62

     nonloc. stress (kbar)  -6937.08      6.98      3.46
                                6.98  -6901.52     -5.89
                                3.46     -5.89  -6915.70

     hartree stress (kbar)  14590.33  -1381.06   3103.73
                            -1381.06  17847.65   -192.21
                             3103.73   -192.21  13845.05

     exc-cor stress (kbar)  -2858.23     -3.32      3.19
                               -3.32  -2863.33     -1.05
                                3.19     -1.05  -2862.83

     corecor stress (kbar)  -3168.93      0.29     -0.97
                                0.29  -3169.07      0.78
                               -0.97      0.78  -3169.39

     ewald   stress (kbar) -20261.58  -2385.46   4308.43
                            -2385.46 -17824.79   -438.30
                             4308.43   -438.30 -22634.01

     hubbard stress (kbar)      0.00      0.00      0.00
                                0.00      0.00      0.00
                                0.00      0.00      0.00

     DFT-D   stress (kbar)      0.00      0.00      0.00
                                0.00      0.00      0.00
                                0.00      0.00      0.00

     XDM     stress (kbar)      0.00      0.00      0.00
                                0.00      0.00      0.00
                                0.00      0.00      0.00

     dft-nl  stress (kbar)      0.00      0.00      0.00
                                0.00      0.00      0.00
                                0.00      0.00      0.00

     TS-vdW  stress (kbar)      0.00      0.00      0.00
                                0.00      0.00      0.00
                                0.00      0.00      0.00



     init_run     :   1767.52s CPU   2435.71s WALL (       1 calls)
     electrons    : 154882.04s CPU 191105.86s WALL (       1 calls)
     forces       :    338.04s CPU    339.29s WALL (       1 calls)
     stress       :    785.07s CPU    975.62s WALL (       1 calls)

     Called by init_run:
     wfcinit      :   1752.08s CPU   2403.40s WALL (       1 calls)
     wfcinit:atom :      1.50s CPU      2.18s WALL (     316 calls)
     wfcinit:wfcr :   1742.00s CPU   2388.71s WALL (     316 calls)
     potinit      :      6.27s CPU     12.68s WALL (       1 calls)
     hinit0       :      6.42s CPU     13.51s WALL (       1 calls)

     Called by electrons:
     c_bands      : 129818.07s CPU 160095.68s WALL (      32 calls)
     sum_band     :  24828.36s CPU  30711.14s WALL (      32 calls)
     v_of_rho     :     71.01s CPU     86.45s WALL (      33 calls)
     v_h          :      4.94s CPU      5.95s WALL (      33 calls)
     v_xc         :     70.94s CPU     85.39s WALL (      35 calls)
     newd         :     72.42s CPU    104.65s WALL (      33 calls)
     PAW_pot      :     34.66s CPU     41.32s WALL (      33 calls)
     mix_rho      :     44.45s CPU     54.43s WALL (      32 calls)

     Called by c_bands:
     init_us_2    :    153.02s CPU    185.22s WALL (   21172 calls)
     cegterg      : 128641.82s CPU 158617.12s WALL (   10112 calls)

     Called by sum_band:
     sum_band:wei :      0.52s CPU      0.65s WALL (      32 calls)
     sum_band:loo :  24645.19s CPU  30467.10s WALL (      32 calls)
     sum_band:buf :     39.04s CPU     43.88s WALL (   10112 calls)
     sum_band:ini :     66.41s CPU     82.17s WALL (   10112 calls)
     sum_band:cal :   1948.93s CPU   2390.21s WALL (   10112 calls)
     sum_band:bec :      5.41s CPU      5.75s WALL (   10112 calls)
     addusdens    :    142.43s CPU    198.19s WALL (      32 calls)
     addusd:skk   :      0.86s CPU      1.11s WALL (      96 calls)
     addusd:dgemm :     39.14s CPU     66.00s WALL (     192 calls)
     addusd:qvan2 :     99.36s CPU    124.79s WALL (     192 calls)

     Called by *egterg:
     cdiaghg      :   3451.62s CPU   4305.76s WALL (   36966 calls)
     cegterg:over :   5815.49s CPU   7013.81s WALL (   26854 calls)
     cegterg:upda :   1087.23s CPU   1389.99s WALL (   26854 calls)
     cegterg:last :   2252.58s CPU   2858.21s WALL (   16697 calls)
     h_psi        : 110146.44s CPU 136182.82s WALL (   37282 calls)
     s_psi        :   2450.83s CPU   3091.79s WALL (   37282 calls)
     g_psi        :     18.47s CPU     22.49s WALL (   26854 calls)

     Called by h_psi:
     h_psi:calbec :   5136.03s CPU   6249.45s WALL (   37282 calls)
     vloc_psi     : 102428.25s CPU 126582.64s WALL (   37282 calls)
     add_vuspsi   :   2520.55s CPU   3266.65s WALL (   37282 calls)

     General routines
     calbec       :   7542.45s CPU   9115.71s WALL (   48974 calls)
     fft          :    112.48s CPU    132.35s WALL (     863 calls)
     ffts         :     10.39s CPU     12.43s WALL (     130 calls)
     fftw         : 124628.19s CPU 154139.14s WALL ( 6361290 calls)
     interpolate  :     11.19s CPU     13.61s WALL (      66 calls)

     Parallel routines
     fft_scatt_xy :    520.91s CPU    546.14s WALL ( 6362283 calls)
     fft_scatt_yz : 121130.87s CPU 150542.13s WALL ( 6362283 calls)

     PAW routines
     PAW_pot      :     34.66s CPU     41.32s WALL (      33 calls)

     PWSCF        :   1d19h49m CPU   2d 6h 7m WALL


   This run was terminated on:   2:49:59  15Jan2023            

=------------------------------------------------------------------------------=
   JOB DONE.
=------------------------------------------------------------------------------=
Note: The following floating-point exceptions are signalling: IEEE_UNDERFLOW_FLAG IEEE_DENORMAL
Note: The following floating-point exceptions are signalling: IEEE_DENORMAL
Note: The following floating-point exceptions are signalling: IEEE_DENORMAL
Note: The following floating-point exceptions are signalling: IEEE_DENORMAL
Note: The following floating-point exceptions are signalling: IEEE_DENORMAL
Note: The following floating-point exceptions are signalling: IEEE_DENORMAL
Note: The following floating-point exceptions are signalling: IEEE_DENORMAL
Note: The following floating-point exceptions are signalling: IEEE_DENORMAL
Note: The following floating-point exceptions are signalling: IEEE_DENORMAL
Note: The following floating-point exceptions are signalling: IEEE_DENORMAL
