
     Program PWSCF v.6.7MaX starts on 15Jan2023 at 13:24:24 

     This program is part of the open-source Quantum ESPRESSO suite
     for quantum simulation of materials; please cite
         "P. Giannozzi et al., J. Phys.:Condens. Matter 21 395502 (2009);
         "P. Giannozzi et al., J. Phys.:Condens. Matter 29 465901 (2017);
          URL http://www.quantum-espresso.org", 
     in publications or presentations arising from this work. More details at
     http://www.quantum-espresso.org/quote

     Parallel version (MPI), running on    12 processors

     MPI processes distributed on     1 nodes
     R & G space division:  proc/nbgrp/npool/nimage =      12
     Reading input from scale_3d-00.in

     Current dimensions of program PWSCF are:
     Max number of different atomic species (ntypx) = 10
     Max number of k-points (npk) =  40000
     Max angular momentum in pseudopotentials (lmaxx) =  3
     Message from routine read_pp_mesh:
     mesh size missing, using the one in header
     file Fe.pbe-spn-kjpaw_psl.0.2.1.UPF: wavefunction(s)  3D renormalized
     file O.pbe-n-kjpaw_psl.0.1.UPF: wavefunction(s)  2P renormalized

     Subspace diagonalization in iterative solution of the eigenvalue problem:
     a serial algorithm will be used


     Parallelization info
     --------------------
     sticks:   dense  smooth     PW     G-vecs:    dense   smooth      PW
     Min        1493     553    149                92509    20863    2948
     Max        1495     555    151                92510    20864    2950
     Sum       17927    6645   1805              1110111   250361   35385



     bravais-lattice index     =            0
     lattice parameter (alat)  =      18.6818  a.u.
     unit-cell volume          =    1852.2367 (a.u.)^3
     number of atoms/cell      =           25
     number of atomic types    =            4
     number of electrons       =       189.00
     number of Kohn-Sham states=          114
     kinetic-energy cutoff     =     100.0000  Ry
     charge density cutoff     =    1080.0000  Ry
     scf convergence threshold =      2.0E-10
     mixing beta               =       0.4000
     number of iterations used =            8  plain     mixing
     Exchange-correlation= PBE
                           (   1   4   3   4   0   0   0)

     celldm(1)=  18.681804  celldm(2)=   0.000000  celldm(3)=   0.000000
     celldm(4)=   0.000000  celldm(5)=   0.000000  celldm(6)=   0.000000

     crystal axes: (cart. coord. in units of alat)
               a(1) = (   1.000000   0.000000   0.000000 )  
               a(2) = (   0.000000   0.597590   0.000000 )  
               a(3) = (   0.000000   0.000000   0.475375 )  

     reciprocal axes: (cart. coord. in units 2 pi/alat)
               b(1) = (  1.000000  0.000000  0.000000 )  
               b(2) = (  0.000000  1.673388  0.000000 )  
               b(3) = (  0.000000  0.000000  2.103600 )  


     PseudoPot. # 1 for Fe read from file:
     /opt/QEpot/SSSP_precision_pseudos/Fe.pbe-spn-kjpaw_psl.0.2.1.UPF
     MD5 check sum: e86618425769142926afa95317d90200
     Pseudo is Projector augmented-wave + core cor, Zval = 16.0
     Generated using "atomic" code by A. Dal Corso  v.5.0.99 svn rev. 10869
     Shape of augmentation charge: PSQ
     Using radial grid of 1191 points,  6 beta functions with: 
                l(1) =   0
                l(2) =   0
                l(3) =   1
                l(4) =   1
                l(5) =   2
                l(6) =   2
     Q(r) pseudized with 0 coefficients 


     PseudoPot. # 2 for Na read from file:
     /opt/QEpot/SSSP_precision_pseudos/Na_ONCV_PBE-1.0.oncvpsp.upf
     MD5 check sum: 24a298df0a6742ae313db96548fdb2a4
     Pseudo is Norm-conserving, Zval =  9.0
     Generated using ONCVPSP code by D. R. Hamann
     Using radial grid of 1992 points,  4 beta functions with: 
                l(1) =   0
                l(2) =   0
                l(3) =   1
                l(4) =   1

     PseudoPot. # 3 for O  read from file:
     /opt/QEpot/SSSP_precision_pseudos/O.pbe-n-kjpaw_psl.0.1.UPF
     MD5 check sum: 0234752ac141de4415c5fc33072bef88
     Pseudo is Projector augmented-wave + core cor, Zval =  6.0
     Generated using "atomic" code by A. Dal Corso  v.5.0.99 svn rev. 10869
     Shape of augmentation charge: BESSEL
     Using radial grid of 1095 points,  4 beta functions with: 
                l(1) =   0
                l(2) =   0
                l(3) =   1
                l(4) =   1
     Q(r) pseudized with 0 coefficients 


     PseudoPot. # 4 for P  read from file:
     /opt/QEpot/SSSP_precision_pseudos/P.pbe-n-rrkjus_psl.1.0.0.UPF
     MD5 check sum: 8b930f418f0a4573dca56cd030ffe088
     Pseudo is Ultrasoft + core correction, Zval =  5.0
     Generated using "atomic" code by A. Dal Corso  v.5.1
     Using radial grid of 1147 points,  6 beta functions with: 
                l(1) =   0
                l(2) =   0
                l(3) =   1
                l(4) =   1
                l(5) =   2
                l(6) =   2
     Q(r) pseudized with 0 coefficients 


     atomic species   valence    mass     pseudopotential
        Fe            16.00    55.84500     Fe( 1.00)
        Na             9.00    22.98977     Na( 1.00)
        O              6.00    15.99940     O ( 1.00)
        P              5.00    30.97376     P ( 1.00)

     Starting magnetic structure 
     atomic species   magnetization
        Fe           0.312
        Na           0.000
        O            0.000
        P            0.000

     No symmetry found


                                    s                        frac. trans.

      isym =  1     identity                                     

 cryst.   s( 1) = (     1          0          0      )
                  (     0          1          0      )
                  (     0          0          1      )

 cart.    s( 1) = (  1.0000000  0.0000000  0.0000000 )
                  (  0.0000000  1.0000000  0.0000000 )
                  (  0.0000000  0.0000000  1.0000000 )


   Cartesian axes

     site n.     atom                  positions (alat units)
         1           Na  tau(   1) = (   0.9908320   0.5356354   0.3911618  )
         2           Fe  tau(   2) = (   0.2986640   0.4600636   0.4076906  )
         3           Fe  tau(   3) = (   0.2176140   0.1809861   0.2290887  )
         4           Fe  tau(   4) = (   0.6993130   0.1376997   0.0570546  )
         5           Fe  tau(   5) = (   0.7827270   0.3981778   0.2231603  )
         6           P   tau(   6) = (   0.0964330   0.4188508   0.1471401  )
         7           P   tau(   7) = (   0.3931680   0.1503273   0.4374044  )
         8           P   tau(   8) = (   0.9083370   0.1933305   0.3264337  )
         9           P   tau(   9) = (   0.6077760   0.4480138   0.0165074  )
        10           O   tau(  10) = (   0.1605150   0.4345309   0.2805885  )
        11           O   tau(  11) = (   0.3515630   0.1480744   0.1036737  )
        12           O   tau(  12) = (   0.8284030   0.1978238   0.1977510  )
        13           O   tau(  13) = (   0.6540840   0.4478219   0.3516823  )
        14           O   tau(  14) = (   0.4610620   0.4592915   0.0271287  )
        15           O   tau(  15) = (   0.0466520   0.1415410   0.3105162  )
        16           O   tau(  16) = (   0.5400580   0.1412236   0.4253213  )
        17           O   tau(  17) = (   0.9523340   0.4615330   0.1535254  )
        18           O   tau(  18) = (   0.1650350   0.5123144   0.0521991  )
        19           O   tau(  19) = (   0.3242430   0.0432697   0.3542099  )
        20           O   tau(  20) = (   0.8958430   0.3332681   0.3751844  )
        21           O   tau(  21) = (   0.6568690   0.3248242   0.0916320  )
        22           O   tau(  22) = (   0.8385610   0.0970677   0.4175537  )
        23           O   tau(  23) = (   0.6777090   0.5527014   0.1014432  )
        24           O   tau(  24) = (   0.1168020   0.2790685   0.1011390  )
        25           O   tau(  25) = (   0.3354730   0.2712646   0.3631531  )

   Crystallographic axes

     site n.     atom                  positions (cryst. coord.)
         1           Na  tau(   1) = (  0.9908320  0.8963260  0.8228480  )
         2           Fe  tau(   2) = (  0.2986640  0.7698650  0.8576180  )
         3           Fe  tau(   3) = (  0.2176140  0.3028600  0.4819110  )
         4           Fe  tau(   4) = (  0.6993130  0.2304250  0.1200200  )
         5           Fe  tau(   5) = (  0.7827270  0.6663060  0.4694400  )
         6           P   tau(   6) = (  0.0964330  0.7009000  0.3095240  )
         7           P   tau(   7) = (  0.3931680  0.2515560  0.9201240  )
         8           P   tau(   8) = (  0.9083370  0.3235170  0.6866860  )
         9           P   tau(   9) = (  0.6077760  0.7497010  0.0347250  )
        10           O   tau(  10) = (  0.1605150  0.7271390  0.5902460  )
        11           O   tau(  11) = (  0.3515630  0.2477860  0.2180880  )
        12           O   tau(  12) = (  0.8284030  0.3310360  0.4159890  )
        13           O   tau(  13) = (  0.6540840  0.7493800  0.7397990  )
        14           O   tau(  14) = (  0.4610620  0.7685730  0.0570680  )
        15           O   tau(  15) = (  0.0466520  0.2368530  0.6532020  )
        16           O   tau(  16) = (  0.5400580  0.2363220  0.8947060  )
        17           O   tau(  17) = (  0.9523340  0.7723240  0.3229560  )
        18           O   tau(  18) = (  0.1650350  0.8573010  0.1098060  )
        19           O   tau(  19) = (  0.3242430  0.0724070  0.7451160  )
        20           O   tau(  20) = (  0.8958430  0.5576870  0.7892380  )
        21           O   tau(  21) = (  0.6568690  0.5435570  0.1927570  )
        22           O   tau(  22) = (  0.8385610  0.1624320  0.8783660  )
        23           O   tau(  23) = (  0.6777090  0.9248840  0.2133960  )
        24           O   tau(  24) = (  0.1168020  0.4669900  0.2127560  )
        25           O   tau(  25) = (  0.3354730  0.4539310  0.7639290  )

     number of k points=   158  Marzari-Vanderbilt smearing, width (Ry)=  0.0073
                       cart. coord. in units 2pi/alat
        k(    1) = (   0.0000000   0.0000000   0.0000000), wk =   0.0031746
        k(    2) = (   0.0000000   0.0000000   0.2337334), wk =   0.0063492
        k(    3) = (   0.0000000   0.0000000   0.4674667), wk =   0.0063492
        k(    4) = (   0.0000000   0.0000000   0.7012001), wk =   0.0063492
        k(    5) = (   0.0000000   0.0000000   0.9349334), wk =   0.0063492
        k(    6) = (   0.0000000   0.2390555   0.0000000), wk =   0.0063492
        k(    7) = (   0.0000000   0.2390555   0.2337334), wk =   0.0063492
        k(    8) = (   0.0000000   0.2390555   0.4674667), wk =   0.0063492
        k(    9) = (   0.0000000   0.2390555   0.7012001), wk =   0.0063492
        k(   10) = (   0.0000000   0.2390555   0.9349334), wk =   0.0063492
        k(   11) = (   0.0000000   0.4781110   0.0000000), wk =   0.0063492
        k(   12) = (   0.0000000   0.4781110   0.2337334), wk =   0.0063492
        k(   13) = (   0.0000000   0.4781110   0.4674667), wk =   0.0063492
        k(   14) = (   0.0000000   0.4781110   0.7012001), wk =   0.0063492
        k(   15) = (   0.0000000   0.4781110   0.9349334), wk =   0.0063492
        k(   16) = (   0.0000000   0.7171664   0.0000000), wk =   0.0063492
        k(   17) = (   0.0000000   0.7171664   0.2337334), wk =   0.0063492
        k(   18) = (   0.0000000   0.7171664   0.4674667), wk =   0.0063492
        k(   19) = (   0.0000000   0.7171664   0.7012001), wk =   0.0063492
        k(   20) = (   0.0000000   0.7171664   0.9349334), wk =   0.0063492
        k(   21) = (   0.2000000   0.0000000   0.0000000), wk =   0.0063492
        k(   22) = (   0.2000000   0.0000000   0.2337334), wk =   0.0063492
        k(   23) = (   0.2000000   0.0000000   0.4674667), wk =   0.0063492
        k(   24) = (   0.2000000   0.0000000   0.7012001), wk =   0.0063492
        k(   25) = (   0.2000000   0.0000000   0.9349334), wk =   0.0063492
        k(   26) = (   0.2000000   0.2390555   0.0000000), wk =   0.0063492
        k(   27) = (   0.2000000   0.2390555   0.2337334), wk =   0.0063492
        k(   28) = (   0.2000000   0.2390555   0.4674667), wk =   0.0063492
        k(   29) = (   0.2000000   0.2390555   0.7012001), wk =   0.0063492
        k(   30) = (   0.2000000   0.2390555   0.9349334), wk =   0.0063492
        k(   31) = (   0.2000000   0.4781110   0.0000000), wk =   0.0063492
        k(   32) = (   0.2000000   0.4781110   0.2337334), wk =   0.0063492
        k(   33) = (   0.2000000   0.4781110   0.4674667), wk =   0.0063492
        k(   34) = (   0.2000000   0.4781110   0.7012001), wk =   0.0063492
        k(   35) = (   0.2000000   0.4781110   0.9349334), wk =   0.0063492
        k(   36) = (   0.2000000   0.7171664   0.0000000), wk =   0.0063492
        k(   37) = (   0.2000000   0.7171664   0.2337334), wk =   0.0063492
        k(   38) = (   0.2000000   0.7171664   0.4674667), wk =   0.0063492
        k(   39) = (   0.2000000   0.7171664   0.7012001), wk =   0.0063492
        k(   40) = (   0.2000000   0.7171664   0.9349334), wk =   0.0063492
        k(   41) = (   0.4000000   0.0000000   0.0000000), wk =   0.0063492
        k(   42) = (   0.4000000   0.0000000   0.2337334), wk =   0.0063492
        k(   43) = (   0.4000000   0.0000000   0.4674667), wk =   0.0063492
        k(   44) = (   0.4000000   0.0000000   0.7012001), wk =   0.0063492
        k(   45) = (   0.4000000   0.0000000   0.9349334), wk =   0.0063492
        k(   46) = (   0.4000000   0.2390555   0.0000000), wk =   0.0063492
        k(   47) = (   0.4000000   0.2390555   0.2337334), wk =   0.0063492
        k(   48) = (   0.4000000   0.2390555   0.4674667), wk =   0.0063492
        k(   49) = (   0.4000000   0.2390555   0.7012001), wk =   0.0063492
        k(   50) = (   0.4000000   0.2390555   0.9349334), wk =   0.0063492
        k(   51) = (   0.4000000   0.4781110   0.0000000), wk =   0.0063492
        k(   52) = (   0.4000000   0.4781110   0.2337334), wk =   0.0063492
        k(   53) = (   0.4000000   0.4781110   0.4674667), wk =   0.0063492
        k(   54) = (   0.4000000   0.4781110   0.7012001), wk =   0.0063492
        k(   55) = (   0.4000000   0.4781110   0.9349334), wk =   0.0063492
        k(   56) = (   0.4000000   0.7171664   0.0000000), wk =   0.0063492
        k(   57) = (   0.4000000   0.7171664   0.2337334), wk =   0.0063492
        k(   58) = (   0.4000000   0.7171664   0.4674667), wk =   0.0063492
        k(   59) = (   0.4000000   0.7171664   0.7012001), wk =   0.0063492
        k(   60) = (   0.4000000   0.7171664   0.9349334), wk =   0.0063492
        k(   61) = (   0.0000000  -0.2390555   0.2337334), wk =   0.0063492
        k(   62) = (   0.0000000  -0.2390555   0.4674667), wk =   0.0063492
        k(   63) = (   0.0000000  -0.2390555   0.7012001), wk =   0.0063492
        k(   64) = (   0.0000000  -0.2390555   0.9349334), wk =   0.0063492
        k(   65) = (   0.0000000  -0.4781110   0.2337334), wk =   0.0063492
        k(   66) = (   0.0000000  -0.4781110   0.4674667), wk =   0.0063492
        k(   67) = (   0.0000000  -0.4781110   0.7012001), wk =   0.0063492
        k(   68) = (   0.0000000  -0.4781110   0.9349334), wk =   0.0063492
        k(   69) = (   0.0000000  -0.7171664   0.2337334), wk =   0.0063492
        k(   70) = (   0.0000000  -0.7171664   0.4674667), wk =   0.0063492
        k(   71) = (   0.0000000  -0.7171664   0.7012001), wk =   0.0063492
        k(   72) = (   0.0000000  -0.7171664   0.9349334), wk =   0.0063492
        k(   73) = (  -0.2000000   0.0000000   0.2337334), wk =   0.0063492
        k(   74) = (  -0.2000000   0.0000000   0.4674667), wk =   0.0063492
        k(   75) = (  -0.2000000   0.0000000   0.7012001), wk =   0.0063492
        k(   76) = (  -0.2000000   0.0000000   0.9349334), wk =   0.0063492
        k(   77) = (  -0.2000000   0.2390555   0.0000000), wk =   0.0063492
        k(   78) = (  -0.2000000  -0.2390555   0.2337334), wk =   0.0063492
        k(   79) = (  -0.2000000   0.2390555  -0.2337334), wk =   0.0063492
        k(   80) = (   0.2000000  -0.2390555  -0.2337334), wk =   0.0063492
        k(   81) = (  -0.2000000  -0.2390555   0.4674667), wk =   0.0063492
        k(   82) = (  -0.2000000   0.2390555  -0.4674667), wk =   0.0063492
        k(   83) = (   0.2000000  -0.2390555  -0.4674667), wk =   0.0063492
        k(   84) = (  -0.2000000  -0.2390555   0.7012001), wk =   0.0063492
        k(   85) = (  -0.2000000   0.2390555  -0.7012001), wk =   0.0063492
        k(   86) = (   0.2000000  -0.2390555  -0.7012001), wk =   0.0063492
        k(   87) = (  -0.2000000  -0.2390555   0.9349334), wk =   0.0063492
        k(   88) = (  -0.2000000   0.2390555  -0.9349334), wk =   0.0063492
        k(   89) = (   0.2000000  -0.2390555  -0.9349334), wk =   0.0063492
        k(   90) = (  -0.2000000   0.4781110   0.0000000), wk =   0.0063492
        k(   91) = (  -0.2000000  -0.4781110   0.2337334), wk =   0.0063492
        k(   92) = (  -0.2000000   0.4781110  -0.2337334), wk =   0.0063492
        k(   93) = (   0.2000000  -0.4781110  -0.2337334), wk =   0.0063492
        k(   94) = (  -0.2000000  -0.4781110   0.4674667), wk =   0.0063492
        k(   95) = (  -0.2000000   0.4781110  -0.4674667), wk =   0.0063492
        k(   96) = (   0.2000000  -0.4781110  -0.4674667), wk =   0.0063492
        k(   97) = (  -0.2000000  -0.4781110   0.7012001), wk =   0.0063492
        k(   98) = (  -0.2000000   0.4781110  -0.7012001), wk =   0.0063492
        k(   99) = (   0.2000000  -0.4781110  -0.7012001), wk =   0.0063492
        k(  100) = (  -0.2000000  -0.4781110   0.9349334), wk =   0.0063492
        k(  101) = (  -0.2000000   0.4781110  -0.9349334), wk =   0.0063492
        k(  102) = (   0.2000000  -0.4781110  -0.9349334), wk =   0.0063492
        k(  103) = (  -0.2000000   0.7171664   0.0000000), wk =   0.0063492
        k(  104) = (  -0.2000000  -0.7171664   0.2337334), wk =   0.0063492
        k(  105) = (  -0.2000000   0.7171664  -0.2337334), wk =   0.0063492
        k(  106) = (   0.2000000  -0.7171664  -0.2337334), wk =   0.0063492
        k(  107) = (  -0.2000000  -0.7171664   0.4674667), wk =   0.0063492
        k(  108) = (  -0.2000000   0.7171664  -0.4674667), wk =   0.0063492
        k(  109) = (   0.2000000  -0.7171664  -0.4674667), wk =   0.0063492
        k(  110) = (  -0.2000000  -0.7171664   0.7012001), wk =   0.0063492
        k(  111) = (  -0.2000000   0.7171664  -0.7012001), wk =   0.0063492
        k(  112) = (   0.2000000  -0.7171664  -0.7012001), wk =   0.0063492
        k(  113) = (  -0.2000000  -0.7171664   0.9349334), wk =   0.0063492
        k(  114) = (  -0.2000000   0.7171664  -0.9349334), wk =   0.0063492
        k(  115) = (   0.2000000  -0.7171664  -0.9349334), wk =   0.0063492
        k(  116) = (  -0.4000000   0.0000000   0.2337334), wk =   0.0063492
        k(  117) = (  -0.4000000   0.0000000   0.4674667), wk =   0.0063492
        k(  118) = (  -0.4000000   0.0000000   0.7012001), wk =   0.0063492
        k(  119) = (  -0.4000000   0.0000000   0.9349334), wk =   0.0063492
        k(  120) = (  -0.4000000   0.2390555   0.0000000), wk =   0.0063492
        k(  121) = (  -0.4000000  -0.2390555   0.2337334), wk =   0.0063492
        k(  122) = (  -0.4000000   0.2390555  -0.2337334), wk =   0.0063492
        k(  123) = (   0.4000000  -0.2390555  -0.2337334), wk =   0.0063492
        k(  124) = (  -0.4000000  -0.2390555   0.4674667), wk =   0.0063492
        k(  125) = (  -0.4000000   0.2390555  -0.4674667), wk =   0.0063492
        k(  126) = (   0.4000000  -0.2390555  -0.4674667), wk =   0.0063492
        k(  127) = (  -0.4000000  -0.2390555   0.7012001), wk =   0.0063492
        k(  128) = (  -0.4000000   0.2390555  -0.7012001), wk =   0.0063492
        k(  129) = (   0.4000000  -0.2390555  -0.7012001), wk =   0.0063492
        k(  130) = (  -0.4000000  -0.2390555   0.9349334), wk =   0.0063492
        k(  131) = (  -0.4000000   0.2390555  -0.9349334), wk =   0.0063492
        k(  132) = (   0.4000000  -0.2390555  -0.9349334), wk =   0.0063492
        k(  133) = (  -0.4000000   0.4781110   0.0000000), wk =   0.0063492
        k(  134) = (  -0.4000000  -0.4781110   0.2337334), wk =   0.0063492
        k(  135) = (  -0.4000000   0.4781110  -0.2337334), wk =   0.0063492
        k(  136) = (   0.4000000  -0.4781110  -0.2337334), wk =   0.0063492
        k(  137) = (  -0.4000000  -0.4781110   0.4674667), wk =   0.0063492
        k(  138) = (  -0.4000000   0.4781110  -0.4674667), wk =   0.0063492
        k(  139) = (   0.4000000  -0.4781110  -0.4674667), wk =   0.0063492
        k(  140) = (  -0.4000000  -0.4781110   0.7012001), wk =   0.0063492
        k(  141) = (  -0.4000000   0.4781110  -0.7012001), wk =   0.0063492
        k(  142) = (   0.4000000  -0.4781110  -0.7012001), wk =   0.0063492
        k(  143) = (  -0.4000000  -0.4781110   0.9349334), wk =   0.0063492
        k(  144) = (  -0.4000000   0.4781110  -0.9349334), wk =   0.0063492
        k(  145) = (   0.4000000  -0.4781110  -0.9349334), wk =   0.0063492
        k(  146) = (  -0.4000000   0.7171664   0.0000000), wk =   0.0063492
        k(  147) = (  -0.4000000  -0.7171664   0.2337334), wk =   0.0063492
        k(  148) = (  -0.4000000   0.7171664  -0.2337334), wk =   0.0063492
        k(  149) = (   0.4000000  -0.7171664  -0.2337334), wk =   0.0063492
        k(  150) = (  -0.4000000  -0.7171664   0.4674667), wk =   0.0063492
        k(  151) = (  -0.4000000   0.7171664  -0.4674667), wk =   0.0063492
        k(  152) = (   0.4000000  -0.7171664  -0.4674667), wk =   0.0063492
        k(  153) = (  -0.4000000  -0.7171664   0.7012001), wk =   0.0063492
        k(  154) = (  -0.4000000   0.7171664  -0.7012001), wk =   0.0063492
        k(  155) = (   0.4000000  -0.7171664  -0.7012001), wk =   0.0063492
        k(  156) = (  -0.4000000  -0.7171664   0.9349334), wk =   0.0063492
        k(  157) = (  -0.4000000   0.7171664  -0.9349334), wk =   0.0063492
        k(  158) = (   0.4000000  -0.7171664  -0.9349334), wk =   0.0063492

                       cryst. coord.
        k(    1) = (   0.0000000   0.0000000   0.0000000), wk =   0.0031746
        k(    2) = (   0.0000000   0.0000000   0.1111111), wk =   0.0063492
        k(    3) = (   0.0000000   0.0000000   0.2222222), wk =   0.0063492
        k(    4) = (   0.0000000   0.0000000   0.3333333), wk =   0.0063492
        k(    5) = (   0.0000000   0.0000000   0.4444444), wk =   0.0063492
        k(    6) = (   0.0000000   0.1428571   0.0000000), wk =   0.0063492
        k(    7) = (   0.0000000   0.1428571   0.1111111), wk =   0.0063492
        k(    8) = (   0.0000000   0.1428571   0.2222222), wk =   0.0063492
        k(    9) = (   0.0000000   0.1428571   0.3333333), wk =   0.0063492
        k(   10) = (   0.0000000   0.1428571   0.4444444), wk =   0.0063492
        k(   11) = (   0.0000000   0.2857143   0.0000000), wk =   0.0063492
        k(   12) = (   0.0000000   0.2857143   0.1111111), wk =   0.0063492
        k(   13) = (   0.0000000   0.2857143   0.2222222), wk =   0.0063492
        k(   14) = (   0.0000000   0.2857143   0.3333333), wk =   0.0063492
        k(   15) = (   0.0000000   0.2857143   0.4444444), wk =   0.0063492
        k(   16) = (   0.0000000   0.4285714   0.0000000), wk =   0.0063492
        k(   17) = (   0.0000000   0.4285714   0.1111111), wk =   0.0063492
        k(   18) = (   0.0000000   0.4285714   0.2222222), wk =   0.0063492
        k(   19) = (   0.0000000   0.4285714   0.3333333), wk =   0.0063492
        k(   20) = (   0.0000000   0.4285714   0.4444444), wk =   0.0063492
        k(   21) = (   0.2000000   0.0000000   0.0000000), wk =   0.0063492
        k(   22) = (   0.2000000   0.0000000   0.1111111), wk =   0.0063492
        k(   23) = (   0.2000000   0.0000000   0.2222222), wk =   0.0063492
        k(   24) = (   0.2000000   0.0000000   0.3333333), wk =   0.0063492
        k(   25) = (   0.2000000   0.0000000   0.4444444), wk =   0.0063492
        k(   26) = (   0.2000000   0.1428571   0.0000000), wk =   0.0063492
        k(   27) = (   0.2000000   0.1428571   0.1111111), wk =   0.0063492
        k(   28) = (   0.2000000   0.1428571   0.2222222), wk =   0.0063492
        k(   29) = (   0.2000000   0.1428571   0.3333333), wk =   0.0063492
        k(   30) = (   0.2000000   0.1428571   0.4444444), wk =   0.0063492
        k(   31) = (   0.2000000   0.2857143   0.0000000), wk =   0.0063492
        k(   32) = (   0.2000000   0.2857143   0.1111111), wk =   0.0063492
        k(   33) = (   0.2000000   0.2857143   0.2222222), wk =   0.0063492
        k(   34) = (   0.2000000   0.2857143   0.3333333), wk =   0.0063492
        k(   35) = (   0.2000000   0.2857143   0.4444444), wk =   0.0063492
        k(   36) = (   0.2000000   0.4285714   0.0000000), wk =   0.0063492
        k(   37) = (   0.2000000   0.4285714   0.1111111), wk =   0.0063492
        k(   38) = (   0.2000000   0.4285714   0.2222222), wk =   0.0063492
        k(   39) = (   0.2000000   0.4285714   0.3333333), wk =   0.0063492
        k(   40) = (   0.2000000   0.4285714   0.4444444), wk =   0.0063492
        k(   41) = (   0.4000000   0.0000000   0.0000000), wk =   0.0063492
        k(   42) = (   0.4000000   0.0000000   0.1111111), wk =   0.0063492
        k(   43) = (   0.4000000   0.0000000   0.2222222), wk =   0.0063492
        k(   44) = (   0.4000000   0.0000000   0.3333333), wk =   0.0063492
        k(   45) = (   0.4000000   0.0000000   0.4444444), wk =   0.0063492
        k(   46) = (   0.4000000   0.1428571   0.0000000), wk =   0.0063492
        k(   47) = (   0.4000000   0.1428571   0.1111111), wk =   0.0063492
        k(   48) = (   0.4000000   0.1428571   0.2222222), wk =   0.0063492
        k(   49) = (   0.4000000   0.1428571   0.3333333), wk =   0.0063492
        k(   50) = (   0.4000000   0.1428571   0.4444444), wk =   0.0063492
        k(   51) = (   0.4000000   0.2857143   0.0000000), wk =   0.0063492
        k(   52) = (   0.4000000   0.2857143   0.1111111), wk =   0.0063492
        k(   53) = (   0.4000000   0.2857143   0.2222222), wk =   0.0063492
        k(   54) = (   0.4000000   0.2857143   0.3333333), wk =   0.0063492
        k(   55) = (   0.4000000   0.2857143   0.4444444), wk =   0.0063492
        k(   56) = (   0.4000000   0.4285714   0.0000000), wk =   0.0063492
        k(   57) = (   0.4000000   0.4285714   0.1111111), wk =   0.0063492
        k(   58) = (   0.4000000   0.4285714   0.2222222), wk =   0.0063492
        k(   59) = (   0.4000000   0.4285714   0.3333333), wk =   0.0063492
        k(   60) = (   0.4000000   0.4285714   0.4444444), wk =   0.0063492
        k(   61) = (   0.0000000  -0.1428571   0.1111111), wk =   0.0063492
        k(   62) = (   0.0000000  -0.1428571   0.2222222), wk =   0.0063492
        k(   63) = (   0.0000000  -0.1428571   0.3333333), wk =   0.0063492
        k(   64) = (   0.0000000  -0.1428571   0.4444444), wk =   0.0063492
        k(   65) = (   0.0000000  -0.2857143   0.1111111), wk =   0.0063492
        k(   66) = (   0.0000000  -0.2857143   0.2222222), wk =   0.0063492
        k(   67) = (   0.0000000  -0.2857143   0.3333333), wk =   0.0063492
        k(   68) = (   0.0000000  -0.2857143   0.4444444), wk =   0.0063492
        k(   69) = (   0.0000000  -0.4285714   0.1111111), wk =   0.0063492
        k(   70) = (   0.0000000  -0.4285714   0.2222222), wk =   0.0063492
        k(   71) = (   0.0000000  -0.4285714   0.3333333), wk =   0.0063492
        k(   72) = (   0.0000000  -0.4285714   0.4444444), wk =   0.0063492
        k(   73) = (  -0.2000000   0.0000000   0.1111111), wk =   0.0063492
        k(   74) = (  -0.2000000   0.0000000   0.2222222), wk =   0.0063492
        k(   75) = (  -0.2000000   0.0000000   0.3333333), wk =   0.0063492
        k(   76) = (  -0.2000000   0.0000000   0.4444444), wk =   0.0063492
        k(   77) = (  -0.2000000   0.1428571   0.0000000), wk =   0.0063492
        k(   78) = (  -0.2000000  -0.1428571   0.1111111), wk =   0.0063492
        k(   79) = (  -0.2000000   0.1428571  -0.1111111), wk =   0.0063492
        k(   80) = (   0.2000000  -0.1428571  -0.1111111), wk =   0.0063492
        k(   81) = (  -0.2000000  -0.1428571   0.2222222), wk =   0.0063492
        k(   82) = (  -0.2000000   0.1428571  -0.2222222), wk =   0.0063492
        k(   83) = (   0.2000000  -0.1428571  -0.2222222), wk =   0.0063492
        k(   84) = (  -0.2000000  -0.1428571   0.3333333), wk =   0.0063492
        k(   85) = (  -0.2000000   0.1428571  -0.3333333), wk =   0.0063492
        k(   86) = (   0.2000000  -0.1428571  -0.3333333), wk =   0.0063492
        k(   87) = (  -0.2000000  -0.1428571   0.4444444), wk =   0.0063492
        k(   88) = (  -0.2000000   0.1428571  -0.4444444), wk =   0.0063492
        k(   89) = (   0.2000000  -0.1428571  -0.4444444), wk =   0.0063492
        k(   90) = (  -0.2000000   0.2857143   0.0000000), wk =   0.0063492
        k(   91) = (  -0.2000000  -0.2857143   0.1111111), wk =   0.0063492
        k(   92) = (  -0.2000000   0.2857143  -0.1111111), wk =   0.0063492
        k(   93) = (   0.2000000  -0.2857143  -0.1111111), wk =   0.0063492
        k(   94) = (  -0.2000000  -0.2857143   0.2222222), wk =   0.0063492
        k(   95) = (  -0.2000000   0.2857143  -0.2222222), wk =   0.0063492
        k(   96) = (   0.2000000  -0.2857143  -0.2222222), wk =   0.0063492
        k(   97) = (  -0.2000000  -0.2857143   0.3333333), wk =   0.0063492
        k(   98) = (  -0.2000000   0.2857143  -0.3333333), wk =   0.0063492
        k(   99) = (   0.2000000  -0.2857143  -0.3333333), wk =   0.0063492
        k(  100) = (  -0.2000000  -0.2857143   0.4444444), wk =   0.0063492
        k(  101) = (  -0.2000000   0.2857143  -0.4444444), wk =   0.0063492
        k(  102) = (   0.2000000  -0.2857143  -0.4444444), wk =   0.0063492
        k(  103) = (  -0.2000000   0.4285714   0.0000000), wk =   0.0063492
        k(  104) = (  -0.2000000  -0.4285714   0.1111111), wk =   0.0063492
        k(  105) = (  -0.2000000   0.4285714  -0.1111111), wk =   0.0063492
        k(  106) = (   0.2000000  -0.4285714  -0.1111111), wk =   0.0063492
        k(  107) = (  -0.2000000  -0.4285714   0.2222222), wk =   0.0063492
        k(  108) = (  -0.2000000   0.4285714  -0.2222222), wk =   0.0063492
        k(  109) = (   0.2000000  -0.4285714  -0.2222222), wk =   0.0063492
        k(  110) = (  -0.2000000  -0.4285714   0.3333333), wk =   0.0063492
        k(  111) = (  -0.2000000   0.4285714  -0.3333333), wk =   0.0063492
        k(  112) = (   0.2000000  -0.4285714  -0.3333333), wk =   0.0063492
        k(  113) = (  -0.2000000  -0.4285714   0.4444444), wk =   0.0063492
        k(  114) = (  -0.2000000   0.4285714  -0.4444444), wk =   0.0063492
        k(  115) = (   0.2000000  -0.4285714  -0.4444444), wk =   0.0063492
        k(  116) = (  -0.4000000   0.0000000   0.1111111), wk =   0.0063492
        k(  117) = (  -0.4000000   0.0000000   0.2222222), wk =   0.0063492
        k(  118) = (  -0.4000000   0.0000000   0.3333333), wk =   0.0063492
        k(  119) = (  -0.4000000   0.0000000   0.4444444), wk =   0.0063492
        k(  120) = (  -0.4000000   0.1428571   0.0000000), wk =   0.0063492
        k(  121) = (  -0.4000000  -0.1428571   0.1111111), wk =   0.0063492
        k(  122) = (  -0.4000000   0.1428571  -0.1111111), wk =   0.0063492
        k(  123) = (   0.4000000  -0.1428571  -0.1111111), wk =   0.0063492
        k(  124) = (  -0.4000000  -0.1428571   0.2222222), wk =   0.0063492
        k(  125) = (  -0.4000000   0.1428571  -0.2222222), wk =   0.0063492
        k(  126) = (   0.4000000  -0.1428571  -0.2222222), wk =   0.0063492
        k(  127) = (  -0.4000000  -0.1428571   0.3333333), wk =   0.0063492
        k(  128) = (  -0.4000000   0.1428571  -0.3333333), wk =   0.0063492
        k(  129) = (   0.4000000  -0.1428571  -0.3333333), wk =   0.0063492
        k(  130) = (  -0.4000000  -0.1428571   0.4444444), wk =   0.0063492
        k(  131) = (  -0.4000000   0.1428571  -0.4444444), wk =   0.0063492
        k(  132) = (   0.4000000  -0.1428571  -0.4444444), wk =   0.0063492
        k(  133) = (  -0.4000000   0.2857143   0.0000000), wk =   0.0063492
        k(  134) = (  -0.4000000  -0.2857143   0.1111111), wk =   0.0063492
        k(  135) = (  -0.4000000   0.2857143  -0.1111111), wk =   0.0063492
        k(  136) = (   0.4000000  -0.2857143  -0.1111111), wk =   0.0063492
        k(  137) = (  -0.4000000  -0.2857143   0.2222222), wk =   0.0063492
        k(  138) = (  -0.4000000   0.2857143  -0.2222222), wk =   0.0063492
        k(  139) = (   0.4000000  -0.2857143  -0.2222222), wk =   0.0063492
        k(  140) = (  -0.4000000  -0.2857143   0.3333333), wk =   0.0063492
        k(  141) = (  -0.4000000   0.2857143  -0.3333333), wk =   0.0063492
        k(  142) = (   0.4000000  -0.2857143  -0.3333333), wk =   0.0063492
        k(  143) = (  -0.4000000  -0.2857143   0.4444444), wk =   0.0063492
        k(  144) = (  -0.4000000   0.2857143  -0.4444444), wk =   0.0063492
        k(  145) = (   0.4000000  -0.2857143  -0.4444444), wk =   0.0063492
        k(  146) = (  -0.4000000   0.4285714   0.0000000), wk =   0.0063492
        k(  147) = (  -0.4000000  -0.4285714   0.1111111), wk =   0.0063492
        k(  148) = (  -0.4000000   0.4285714  -0.1111111), wk =   0.0063492
        k(  149) = (   0.4000000  -0.4285714  -0.1111111), wk =   0.0063492
        k(  150) = (  -0.4000000  -0.4285714   0.2222222), wk =   0.0063492
        k(  151) = (  -0.4000000   0.4285714  -0.2222222), wk =   0.0063492
        k(  152) = (   0.4000000  -0.4285714  -0.2222222), wk =   0.0063492
        k(  153) = (  -0.4000000  -0.4285714   0.3333333), wk =   0.0063492
        k(  154) = (  -0.4000000   0.4285714  -0.3333333), wk =   0.0063492
        k(  155) = (   0.4000000  -0.4285714  -0.3333333), wk =   0.0063492
        k(  156) = (  -0.4000000  -0.4285714   0.4444444), wk =   0.0063492
        k(  157) = (  -0.4000000   0.4285714  -0.4444444), wk =   0.0063492
        k(  158) = (   0.4000000  -0.4285714  -0.4444444), wk =   0.0063492

     Dense  grid:  1110111 G-vectors     FFT dimensions: ( 200, 120,  96)

     Smooth grid:   250361 G-vectors     FFT dimensions: ( 120,  72,  60)

     Dynamical RAM for                 wfc:       4.53 MB

     Dynamical RAM for     wfc (w. buffer):    1437.01 MB

     Dynamical RAM for           str. fact:       5.65 MB

     Dynamical RAM for           local pot:       0.00 MB

     Dynamical RAM for          nlocal pot:      11.13 MB

     Dynamical RAM for                qrad:      10.54 MB

     Dynamical RAM for          rho,v,vnew:      17.26 MB

     Dynamical RAM for               rhoin:       5.75 MB

     Dynamical RAM for            rho*nmix:      45.17 MB

     Dynamical RAM for           G-vectors:       5.45 MB

     Dynamical RAM for          h,s,v(r/c):       2.38 MB

     Dynamical RAM for          <psi|beta>:       0.49 MB

     Dynamical RAM for                 psi:       9.07 MB

     Dynamical RAM for                hpsi:       9.07 MB

     Dynamical RAM for                spsi:       9.07 MB

     Dynamical RAM for      wfcinit/wfcrot:      11.33 MB

     Dynamical RAM for           addusdens:     286.55 MB

     Dynamical RAM for          addusforce:     329.02 MB

     Dynamical RAM for         addusstress:     285.84 MB

     Estimated static dynamical RAM per process >       1.52 GB

     Estimated max dynamical RAM per process >       1.84 GB

     Estimated total dynamical RAM >      22.06 GB

     Check: negative core charge=   -0.000003
     Generating pointlists ...
     new r_m :   0.0763 (alat units)  1.4259 (a.u.) for type    1
     new r_m :   0.0915 (alat units)  1.7088 (a.u.) for type    2
     new r_m :   0.0609 (alat units)  1.1369 (a.u.) for type    3
     new r_m :   0.0609 (alat units)  1.1369 (a.u.) for type    4

     Initial potential from superposition of free atoms

     starting charge  188.99132, renormalised to  189.00000
     Starting wfcs are  137 randomized atomic wfcs
     Checking if some PAW data can be deallocated... 
       PAW data deallocated on   10 nodes for type:  1
       PAW data deallocated on    4 nodes for type:  3

     total cpu time spent up to now is     2513.8 secs

     Self-consistent Calculation

     iteration #  1     ecut=   100.00 Ry     beta= 0.40
     Davidson diagonalization with overlap
     ethr =  1.00E-02,  avg # of iterations =  3.4

     negative rho (up, down):  0.000E+00 2.998E-05

     total cpu time spent up to now is     9849.3 secs

     total energy              =   -2123.73638811 Ry
     estimated scf accuracy    <       6.84721850 Ry

     total magnetization       =    19.00 Bohr mag/cell
     absolute magnetization    =    19.00 Bohr mag/cell

     iteration #  2     ecut=   100.00 Ry     beta= 0.40
     Davidson diagonalization with overlap
     ethr =  3.62E-03,  avg # of iterations =  2.0

     negative rho (up, down):  0.000E+00 3.819E-05

     total cpu time spent up to now is    16556.9 secs

     total energy              =   -2122.29051833 Ry
     estimated scf accuracy    <      18.65431867 Ry

     total magnetization       =    10.96 Bohr mag/cell
     absolute magnetization    =    12.31 Bohr mag/cell

     iteration #  3     ecut=   100.00 Ry     beta= 0.40
     Davidson diagonalization with overlap
     ethr =  3.62E-03,  avg # of iterations =  2.6

     negative rho (up, down):  0.000E+00 1.396E-05

     total cpu time spent up to now is    22261.8 secs

     total energy              =   -2123.34605979 Ry
     estimated scf accuracy    <      69.74388932 Ry

     total magnetization       =     2.87 Bohr mag/cell
     absolute magnetization    =     5.26 Bohr mag/cell

     iteration #  4     ecut=   100.00 Ry     beta= 0.40
     Davidson diagonalization with overlap
     ethr =  3.62E-03,  avg # of iterations =  1.5

     negative rho (up, down):  0.000E+00 8.127E-06

     total cpu time spent up to now is    27623.2 secs

     total energy              =   -2124.47571162 Ry
     estimated scf accuracy    <      19.26035708 Ry

     total magnetization       =    11.07 Bohr mag/cell
     absolute magnetization    =    11.41 Bohr mag/cell

     iteration #  5     ecut=   100.00 Ry     beta= 0.40
     Davidson diagonalization with overlap
     ethr =  3.62E-03,  avg # of iterations =  1.7

     negative rho (up, down):  0.000E+00 6.414E-05

     total cpu time spent up to now is    33031.7 secs

     total energy              =   -2125.50747829 Ry
     estimated scf accuracy    <       4.68523306 Ry

     total magnetization       =    16.20 Bohr mag/cell
     absolute magnetization    =    16.25 Bohr mag/cell

     iteration #  6     ecut=   100.00 Ry     beta= 0.40
     Davidson diagonalization with overlap
     ethr =  2.48E-03,  avg # of iterations =  1.4

     negative rho (up, down):  0.000E+00 2.110E-04

     total cpu time spent up to now is    38348.8 secs

     total energy              =   -2125.70192412 Ry
     estimated scf accuracy    <       0.43891333 Ry

     total magnetization       =    19.08 Bohr mag/cell
     absolute magnetization    =    19.08 Bohr mag/cell

     iteration #  7     ecut=   100.00 Ry     beta= 0.40
     Davidson diagonalization with overlap
     c_bands:  1 eigenvalues not converged
     c_bands:  1 eigenvalues not converged
     ethr =  2.32E-04,  avg # of iterations =  5.9

     negative rho (up, down):  0.000E+00 2.829E-04

     total cpu time spent up to now is    44342.8 secs

     total energy              =   -2125.71760002 Ry
     estimated scf accuracy    <       0.14198054 Ry

     total magnetization       =    19.01 Bohr mag/cell
     absolute magnetization    =    19.01 Bohr mag/cell

     iteration #  8     ecut=   100.00 Ry     beta= 0.40
     Davidson diagonalization with overlap
     c_bands:  1 eigenvalues not converged
     c_bands:  1 eigenvalues not converged
     ethr =  7.51E-05,  avg # of iterations = 10.5

     negative rho (up, down):  0.000E+00 3.162E-04

     total cpu time spent up to now is    51276.6 secs

     total energy              =   -2125.71755468 Ry
     estimated scf accuracy    <       0.55549114 Ry

     total magnetization       =    18.60 Bohr mag/cell
     absolute magnetization    =    18.61 Bohr mag/cell

     iteration #  9     ecut=   100.00 Ry     beta= 0.40
     Davidson diagonalization with overlap
     ethr =  7.51E-05,  avg # of iterations =  1.1

     negative rho (up, down):  0.000E+00 5.242E-04

     total cpu time spent up to now is    56518.3 secs

     total energy              =   -2125.74216887 Ry
     estimated scf accuracy    <       0.03544000 Ry

     total magnetization       =    19.01 Bohr mag/cell
     absolute magnetization    =    19.01 Bohr mag/cell

     iteration # 10     ecut=   100.00 Ry     beta= 0.40
     Davidson diagonalization with overlap
     c_bands:  1 eigenvalues not converged
     c_bands:  1 eigenvalues not converged
     c_bands:  1 eigenvalues not converged
     c_bands:  1 eigenvalues not converged
     ethr =  1.88E-05,  avg # of iterations =  4.9

     negative rho (up, down):  0.000E+00 7.709E-04

     total cpu time spent up to now is    62435.5 secs

     total energy              =   -2125.74756235 Ry
     estimated scf accuracy    <       0.03759981 Ry

     total magnetization       =    19.00 Bohr mag/cell
     absolute magnetization    =    19.01 Bohr mag/cell

     iteration # 11     ecut=   100.00 Ry     beta= 0.40
     Davidson diagonalization with overlap
     ethr =  1.88E-05,  avg # of iterations =  1.1

     negative rho (up, down):  0.000E+00 8.253E-04

     total cpu time spent up to now is    67677.3 secs

     total energy              =   -2125.75025814 Ry
     estimated scf accuracy    <       0.01066510 Ry

     total magnetization       =    19.00 Bohr mag/cell
     absolute magnetization    =    19.02 Bohr mag/cell

     iteration # 12     ecut=   100.00 Ry     beta= 0.40
     Davidson diagonalization with overlap
     c_bands:  1 eigenvalues not converged
     c_bands:  1 eigenvalues not converged
     c_bands:  1 eigenvalues not converged
     c_bands:  1 eigenvalues not converged
     c_bands:  1 eigenvalues not converged
     c_bands:  1 eigenvalues not converged
     c_bands:  1 eigenvalues not converged
     c_bands:  1 eigenvalues not converged
     c_bands:  1 eigenvalues not converged
     c_bands:  1 eigenvalues not converged
     c_bands:  2 eigenvalues not converged
     c_bands:  1 eigenvalues not converged
     c_bands:  1 eigenvalues not converged
     c_bands:  1 eigenvalues not converged
     c_bands:  1 eigenvalues not converged
     ethr =  5.64E-06,  avg # of iterations =  8.0

     negative rho (up, down):  0.000E+00 8.449E-04

     total cpu time spent up to now is    74199.5 secs

     total energy              =   -2125.75128726 Ry
     estimated scf accuracy    <       0.00817876 Ry

     total magnetization       =    19.00 Bohr mag/cell
     absolute magnetization    =    19.02 Bohr mag/cell

     iteration # 13     ecut=   100.00 Ry     beta= 0.40
     Davidson diagonalization with overlap
     ethr =  4.33E-06,  avg # of iterations =  1.5

     negative rho (up, down):  0.000E+00 8.570E-04

     total cpu time spent up to now is    79528.0 secs

     total energy              =   -2125.75162202 Ry
     estimated scf accuracy    <       0.00171577 Ry

     total magnetization       =    19.00 Bohr mag/cell
     absolute magnetization    =    19.03 Bohr mag/cell

     iteration # 14     ecut=   100.00 Ry     beta= 0.40
     Davidson diagonalization with overlap
     c_bands:  1 eigenvalues not converged
     ethr =  9.08E-07,  avg # of iterations =  5.5

     negative rho (up, down):  0.000E+00 8.473E-04

     total cpu time spent up to now is    87513.0 secs

     total energy              =   -2125.75214582 Ry
     estimated scf accuracy    <       0.00046453 Ry

     total magnetization       =    19.00 Bohr mag/cell
     absolute magnetization    =    19.03 Bohr mag/cell

     iteration # 15     ecut=   100.00 Ry     beta= 0.40
     Davidson diagonalization with overlap
     ethr =  2.46E-07,  avg # of iterations =  1.1

     negative rho (up, down):  0.000E+00 8.456E-04

     total cpu time spent up to now is    92754.4 secs

     total energy              =   -2125.75216083 Ry
     estimated scf accuracy    <       0.00090738 Ry

     total magnetization       =    19.00 Bohr mag/cell
     absolute magnetization    =    19.03 Bohr mag/cell

     iteration # 16     ecut=   100.00 Ry     beta= 0.40
     Davidson diagonalization with overlap
     ethr =  2.46E-07,  avg # of iterations =  1.0

     negative rho (up, down):  0.000E+00 8.395E-04

     total cpu time spent up to now is    97977.1 secs

     total energy              =   -2125.75216646 Ry
     estimated scf accuracy    <       0.00032016 Ry

     total magnetization       =    19.00 Bohr mag/cell
     absolute magnetization    =    19.03 Bohr mag/cell

     iteration # 17     ecut=   100.00 Ry     beta= 0.40
     Davidson diagonalization with overlap
     ethr =  1.69E-07,  avg # of iterations =  1.0

     negative rho (up, down):  0.000E+00 8.343E-04

     total cpu time spent up to now is   103197.1 secs

     total energy              =   -2125.75217168 Ry
     estimated scf accuracy    <       0.00023047 Ry

     total magnetization       =    19.00 Bohr mag/cell
     absolute magnetization    =    19.03 Bohr mag/cell

     iteration # 18     ecut=   100.00 Ry     beta= 0.40
     Davidson diagonalization with overlap
     ethr =  1.22E-07,  avg # of iterations =  1.0

     negative rho (up, down):  0.000E+00 8.359E-04

     total cpu time spent up to now is   108376.8 secs

     total energy              =   -2125.75217565 Ry
     estimated scf accuracy    <       0.00007731 Ry

     total magnetization       =    19.00 Bohr mag/cell
     absolute magnetization    =    19.03 Bohr mag/cell

     iteration # 19     ecut=   100.00 Ry     beta= 0.40
     Davidson diagonalization with overlap
     ethr =  4.09E-08,  avg # of iterations =  1.0

     negative rho (up, down):  0.000E+00 8.323E-04

     total cpu time spent up to now is   113603.3 secs

     total energy              =   -2125.75217826 Ry
     estimated scf accuracy    <       0.00012118 Ry

     total magnetization       =    19.00 Bohr mag/cell
     absolute magnetization    =    19.03 Bohr mag/cell

     iteration # 20     ecut=   100.00 Ry     beta= 0.40
     Davidson diagonalization with overlap
     ethr =  4.09E-08,  avg # of iterations =  1.0

     negative rho (up, down):  0.000E+00 8.313E-04

     total cpu time spent up to now is   118735.7 secs

     total energy              =   -2125.75218016 Ry
     estimated scf accuracy    <       0.00001378 Ry

     total magnetization       =    19.00 Bohr mag/cell
     absolute magnetization    =    19.03 Bohr mag/cell

     iteration # 21     ecut=   100.00 Ry     beta= 0.40
     Davidson diagonalization with overlap
     ethr =  7.29E-09,  avg # of iterations =  2.1

     negative rho (up, down):  0.000E+00 8.307E-04

     total cpu time spent up to now is   124133.3 secs

     total energy              =   -2125.75218089 Ry
     estimated scf accuracy    <       0.00000305 Ry

     total magnetization       =    19.00 Bohr mag/cell
     absolute magnetization    =    19.03 Bohr mag/cell

     iteration # 22     ecut=   100.00 Ry     beta= 0.40
     Davidson diagonalization with overlap
     ethr =  1.61E-09,  avg # of iterations =  3.5

     negative rho (up, down):  0.000E+00 8.306E-04

     total cpu time spent up to now is   130846.4 secs

     total energy              =   -2125.75218161 Ry
     estimated scf accuracy    <       0.00000052 Ry

     total magnetization       =    19.00 Bohr mag/cell
     absolute magnetization    =    19.03 Bohr mag/cell

     iteration # 23     ecut=   100.00 Ry     beta= 0.40
     Davidson diagonalization with overlap
     ethr =  2.74E-10,  avg # of iterations =  2.7

     negative rho (up, down):  0.000E+00 8.307E-04

     total cpu time spent up to now is   136521.0 secs

     total energy              =   -2125.75218168 Ry
     estimated scf accuracy    <       0.00000003 Ry

     total magnetization       =    19.00 Bohr mag/cell
     absolute magnetization    =    19.03 Bohr mag/cell

     iteration # 24     ecut=   100.00 Ry     beta= 0.40
     Davidson diagonalization with overlap
     ethr =  1.67E-11,  avg # of iterations =  4.2

     negative rho (up, down):  0.000E+00 8.308E-04

     total cpu time spent up to now is   144828.9 secs

     total energy              =   -2125.75218170 Ry
     estimated scf accuracy    <       0.00000003 Ry

     total magnetization       =    19.00 Bohr mag/cell
     absolute magnetization    =    19.03 Bohr mag/cell

     iteration # 25     ecut=   100.00 Ry     beta= 0.40
     Davidson diagonalization with overlap
     ethr =  1.67E-11,  avg # of iterations =  2.0

     negative rho (up, down):  0.000E+00 8.309E-04

     total cpu time spent up to now is   150414.7 secs

     total energy              =   -2125.75218170 Ry
     estimated scf accuracy    <       0.00000002 Ry

     total magnetization       =    19.00 Bohr mag/cell
     absolute magnetization    =    19.03 Bohr mag/cell

     iteration # 26     ecut=   100.00 Ry     beta= 0.40
     Davidson diagonalization with overlap
     ethr =  1.06E-11,  avg # of iterations =  1.0

     negative rho (up, down):  0.000E+00 8.309E-04

     total cpu time spent up to now is   155615.2 secs

     total energy              =   -2125.75218170 Ry
     estimated scf accuracy    <          3.2E-09 Ry

     total magnetization       =    19.00 Bohr mag/cell
     absolute magnetization    =    19.03 Bohr mag/cell

     iteration # 27     ecut=   100.00 Ry     beta= 0.40
     Davidson diagonalization with overlap
     ethr =  1.72E-12,  avg # of iterations =  2.1

     negative rho (up, down):  0.000E+00 8.309E-04

     total cpu time spent up to now is   161141.4 secs

     total energy              =   -2125.75218170 Ry
     estimated scf accuracy    <          2.2E-09 Ry

     total magnetization       =    19.00 Bohr mag/cell
     absolute magnetization    =    19.03 Bohr mag/cell

     iteration # 28     ecut=   100.00 Ry     beta= 0.40
     Davidson diagonalization with overlap
     ethr =  1.16E-12,  avg # of iterations =  2.0

     negative rho (up, down):  0.000E+00 8.309E-04

     total cpu time spent up to now is   166669.0 secs

     total energy              =   -2125.75218171 Ry
     estimated scf accuracy    <          2.5E-09 Ry

     total magnetization       =    19.00 Bohr mag/cell
     absolute magnetization    =    19.03 Bohr mag/cell

     iteration # 29     ecut=   100.00 Ry     beta= 0.40
     Davidson diagonalization with overlap
     ethr =  1.16E-12,  avg # of iterations =  1.0

     negative rho (up, down):  0.000E+00 8.309E-04

     total cpu time spent up to now is   171844.1 secs

     total energy              =   -2125.75218171 Ry
     estimated scf accuracy    <          6.6E-10 Ry

     total magnetization       =    19.00 Bohr mag/cell
     absolute magnetization    =    19.03 Bohr mag/cell

     iteration # 30     ecut=   100.00 Ry     beta= 0.40
     Davidson diagonalization with overlap
     ethr =  3.50E-13,  avg # of iterations =  1.7

     negative rho (up, down):  0.000E+00 8.309E-04

     total cpu time spent up to now is   177160.3 secs

     total energy              =   -2125.75218171 Ry
     estimated scf accuracy    <          2.4E-10 Ry

     total magnetization       =    19.00 Bohr mag/cell
     absolute magnetization    =    19.03 Bohr mag/cell

     iteration # 31     ecut=   100.00 Ry     beta= 0.40
     Davidson diagonalization with overlap
     ethr =  1.28E-13,  avg # of iterations =  3.3

     negative rho (up, down):  0.000E+00 8.309E-04

     Magnetic moment per site:
     atom:    1    charge:    7.9194    magn:    0.0022    constr:    0.0000
     atom:    2    charge:   12.6603    magn:    3.5642    constr:    0.0000
     atom:    3    charge:   12.6793    magn:    3.4764    constr:    0.0000
     atom:    4    charge:   12.6695    magn:    3.5214    constr:    0.0000
     atom:    5    charge:   12.6690    magn:    3.5288    constr:    0.0000
     atom:    6    charge:    0.7771    magn:    0.0131    constr:    0.0000
     atom:    7    charge:    0.7656    magn:    0.0136    constr:    0.0000
     atom:    8    charge:    0.7744    magn:    0.0111    constr:    0.0000
     atom:    9    charge:    0.7674    magn:    0.0136    constr:    0.0000
     atom:   10    charge:    4.0745    magn:    0.1126    constr:    0.0000
     atom:   11    charge:    4.0604    magn:    0.1056    constr:    0.0000
     atom:   12    charge:    4.0464    magn:    0.1594    constr:    0.0000
     atom:   13    charge:    4.0564    magn:    0.1066    constr:    0.0000
     atom:   14    charge:    4.0598    magn:    0.1189    constr:    0.0000
     atom:   15    charge:    4.0567    magn:    0.0867    constr:    0.0000
     atom:   16    charge:    4.0525    magn:    0.1128    constr:    0.0000
     atom:   17    charge:    4.0424    magn:    0.1019    constr:    0.0000
     atom:   18    charge:    4.0625    magn:    0.1295    constr:    0.0000
     atom:   19    charge:    4.0503    magn:    0.1504    constr:    0.0000
     atom:   20    charge:    4.0528    magn:    0.1054    constr:    0.0000
     atom:   21    charge:    4.0630    magn:    0.1601    constr:    0.0000
     atom:   22    charge:    4.0654    magn:    0.1250    constr:    0.0000
     atom:   23    charge:    4.0455    magn:    0.1475    constr:    0.0000
     atom:   24    charge:    4.0509    magn:    0.1066    constr:    0.0000
     atom:   25    charge:    4.0463    magn:    0.1521    constr:    0.0000

     total cpu time spent up to now is   182876.0 secs

     End of self-consistent calculation

 ------ SPIN UP ------------


          k = 0.0000 0.0000 0.0000 ( 31277 PWs)   bands (ev):

   -83.0270 -82.9785 -82.8354 -82.5612 -49.1503 -49.1239 -49.1123 -49.0369
   -48.9565 -48.9530 -48.9071 -48.7983 -48.7768 -48.6822 -48.5754 -48.3888
   -42.4885 -15.6889 -15.4205 -15.4122 -15.2254 -14.5852 -14.5584 -14.4279
   -12.8740 -12.6714 -12.6323 -12.5066 -12.4759 -12.3675 -12.3547 -12.3232
   -12.2317 -12.1655 -12.1500 -12.0868  -3.0659  -2.4486  -2.1716  -1.8268
    -1.2017  -1.0352  -0.7588  -0.7329  -0.4214  -0.2104  -0.0694  -0.0217
     0.1070   0.1737   0.2698   0.4208   0.9959   1.1404   1.3233   1.5853
     1.6946   1.7925   1.9019   2.0027   2.0405   2.1522   2.2401   2.3244
     2.5324   2.6927   2.9124   3.0464   3.1575   3.2791   3.3510   3.4391
     3.4771   3.6326   3.7944   3.9327   4.0098   4.1361   4.2596   4.2860
     4.5318   4.7226   4.7574   4.8303   4.8794   4.9291   4.9849   5.1023
     5.2599   5.3363   5.5150   5.5535   5.6464   5.7399   5.8719   5.9607
     6.1918   6.3308   6.3905   6.4627   6.5115   6.9137   7.1930   7.5839
    11.9628  13.9763  13.9926  14.7383  15.0026  15.8433  15.9016  16.0105
    16.1719  16.5101

     occupation numbers 
     1.0000   1.0000   1.0000   1.0000   1.0000   1.0000   1.0000   1.0000
     1.0000   1.0000   1.0000   1.0000   1.0000   1.0000   1.0000   1.0000
     1.0000   1.0000   1.0000   1.0000   1.0000   1.0000   1.0000   1.0000
     1.0000   1.0000   1.0000   1.0000   1.0000   1.0000   1.0000   1.0000
     1.0000   1.0000   1.0000   1.0000   1.0000   1.0000   1.0000   1.0000
     1.0000   1.0000   1.0000   1.0000   1.0000   1.0000   1.0000   1.0000
     1.0000   1.0000   1.0000   1.0000   1.0000   1.0000   1.0000   1.0000
     1.0000   1.0000   1.0000   1.0000   1.0000   1.0000   1.0000   1.0000
     1.0000   1.0000   1.0000   1.0000   1.0000   1.0000   1.0000   1.0000
     1.0000   1.0000   1.0000   1.0000   1.0000   1.0000   1.0000   1.0000
     1.0000   1.0000   1.0000   1.0000   1.0000   1.0000   1.0000   1.0000
     1.0000   1.0000   1.0000   1.0000   1.0000   1.0000   1.0000   1.0000
     1.0000   1.0000   1.0000   1.0000   1.0000   1.0000   1.0000   1.0000
     0.0000   0.0000   0.0000   0.0000   0.0000   0.0000   0.0000   0.0000
     0.0000   0.0000

          k = 0.0000 0.0000 0.2337 ( 31269 PWs)   bands (ev):

   -83.0270 -82.9785 -82.8354 -82.5612 -49.1503 -49.1239 -49.1123 -49.0369
   -48.9565 -48.9530 -48.9071 -48.7983 -48.7768 -48.6822 -48.5754 -48.3888
   -42.4885 -15.6743 -15.4213 -15.4002 -15.2197 -14.5883 -14.5597 -14.4223
   -12.8897 -12.6832 -12.6417 -12.5032 -12.4718 -12.3740 -12.3581 -12.3266
   -12.2537 -12.1702 -12.1535 -12.0803  -3.0282  -2.4334  -2.1665  -1.8145
    -1.1712  -1.0300  -0.7845  -0.6803  -0.4202  -0.2148  -0.0697  -0.0097
     0.1354   0.1685   0.2332   0.4524   1.0169   1.1567   1.3138   1.5800
     1.6589   1.7882   1.8742   1.9426   2.1071   2.1756   2.2549   2.3097
     2.5228   2.6991   2.8960   3.0350   3.1980   3.2904   3.3603   3.4007
     3.5091   3.6336   3.7689   3.9117   4.0253   4.0834   4.2218   4.2438
     4.5419   4.6814   4.7561   4.8435   4.8758   4.9122   5.0060   5.0837
     5.2163   5.3953   5.4770   5.5596   5.6556   5.7323   5.9015   5.9685
     6.1635   6.3455   6.3845   6.4554   6.5170   6.9161   7.1840   7.5727
    12.1072  13.9960  14.0966  14.7612  15.0802  15.7534  15.8658  15.9886
    16.1622  16.4042

     occupation numbers 
     1.0000   1.0000   1.0000   1.0000   1.0000   1.0000   1.0000   1.0000
     1.0000   1.0000   1.0000   1.0000   1.0000   1.0000   1.0000   1.0000
     1.0000   1.0000   1.0000   1.0000   1.0000   1.0000   1.0000   1.0000
     1.0000   1.0000   1.0000   1.0000   1.0000   1.0000   1.0000   1.0000
     1.0000   1.0000   1.0000   1.0000   1.0000   1.0000   1.0000   1.0000
     1.0000   1.0000   1.0000   1.0000   1.0000   1.0000   1.0000   1.0000
     1.0000   1.0000   1.0000   1.0000   1.0000   1.0000   1.0000   1.0000
     1.0000   1.0000   1.0000   1.0000   1.0000   1.0000   1.0000   1.0000
     1.0000   1.0000   1.0000   1.0000   1.0000   1.0000   1.0000   1.0000
     1.0000   1.0000   1.0000   1.0000   1.0000   1.0000   1.0000   1.0000
     1.0000   1.0000   1.0000   1.0000   1.0000   1.0000   1.0000   1.0000
     1.0000   1.0000   1.0000   1.0000   1.0000   1.0000   1.0000   1.0000
     1.0000   1.0000   1.0000   1.0000   1.0000   1.0000   1.0000   1.0000
     0.0000   0.0000   0.0000   0.0000   0.0000   0.0000   0.0000   0.0000
     0.0000   0.0000

          k = 0.0000 0.0000 0.4675 ( 31276 PWs)   bands (ev):

   -83.0270 -82.9785 -82.8354 -82.5612 -49.1503 -49.1239 -49.1123 -49.0369
   -48.9565 -48.9530 -48.9071 -48.7983 -48.7768 -48.6822 -48.5754 -48.3888
   -42.4885 -15.6342 -15.4277 -15.3661 -15.2063 -14.5965 -14.5594 -14.4116
   -12.9291 -12.7273 -12.6516 -12.5052 -12.4576 -12.3970 -12.3725 -12.3287
   -12.2871 -12.1862 -12.1602 -12.0728  -2.9309  -2.3895  -2.1498  -1.8082
    -1.1458  -0.9608  -0.7608  -0.6293  -0.4182  -0.2319  -0.0982   0.0383
     0.1438   0.1806   0.2549   0.4827   1.0456   1.2082   1.3167   1.5395
     1.5892   1.7922   1.8403   1.9654   2.1269   2.2010   2.2644   2.3369
     2.5032   2.7206   2.8591   3.0112   3.2176   3.2546   3.3409   3.4619
     3.4988   3.6079   3.6747   3.7992   3.9548   4.0308   4.1327   4.3064
     4.4691   4.6099   4.7123   4.7894   4.8951   4.9634   5.0341   5.0988
     5.2252   5.3752   5.4986   5.5400   5.6766   5.7679   5.8987   5.9797
     6.1294   6.3409   6.3783   6.4508   6.5387   6.9229   7.1613   7.5464
    12.4974  14.1064  14.2873  14.8611  15.2271  15.5318  15.7573  15.9038
    16.0889  16.2189

     occupation numbers 
     1.0000   1.0000   1.0000   1.0000   1.0000   1.0000   1.0000   1.0000
     1.0000   1.0000   1.0000   1.0000   1.0000   1.0000   1.0000   1.0000
     1.0000   1.0000   1.0000   1.0000   1.0000   1.0000   1.0000   1.0000
     1.0000   1.0000   1.0000   1.0000   1.0000   1.0000   1.0000   1.0000
     1.0000   1.0000   1.0000   1.0000   1.0000   1.0000   1.0000   1.0000
     1.0000   1.0000   1.0000   1.0000   1.0000   1.0000   1.0000   1.0000
     1.0000   1.0000   1.0000   1.0000   1.0000   1.0000   1.0000   1.0000
     1.0000   1.0000   1.0000   1.0000   1.0000   1.0000   1.0000   1.0000
     1.0000   1.0000   1.0000   1.0000   1.0000   1.0000   1.0000   1.0000
     1.0000   1.0000   1.0000   1.0000   1.0000   1.0000   1.0000   1.0000
     1.0000   1.0000   1.0000   1.0000   1.0000   1.0000   1.0000   1.0000
     1.0000   1.0000   1.0000   1.0000   1.0000   1.0000   1.0000   1.0000
     1.0000   1.0000   1.0000   1.0000   1.0000   1.0000   1.0000   1.0000
     0.0000   0.0000   0.0000   0.0000   0.0000   0.0000   0.0000   0.0000
     0.0000   0.0000

          k = 0.0000 0.0000 0.7012 ( 31286 PWs)   bands (ev):

   -83.0270 -82.9785 -82.8354 -82.5612 -49.1503 -49.1239 -49.1123 -49.0369
   -48.9565 -48.9530 -48.9071 -48.7983 -48.7768 -48.6822 -48.5754 -48.3888
   -42.4885 -15.5791 -15.4443 -15.3218 -15.1943 -14.6046 -14.5557 -14.4040
   -12.9726 -12.7847 -12.6600 -12.5160 -12.4506 -12.4325 -12.3833 -12.3231
   -12.3037 -12.1971 -12.1700 -12.0749  -2.8167  -2.3268  -2.1264  -1.8390
    -1.1570  -0.8617  -0.6769  -0.5946  -0.4192  -0.2516  -0.1595   0.0664
     0.1636   0.2442   0.3163   0.4801   1.0366   1.2807   1.3731   1.4841
     1.6077   1.8139   1.8411   2.0387   2.1213   2.2219   2.3023   2.3540
     2.4915   2.7315   2.8074   2.9751   3.1431   3.1767   3.2755   3.3331
     3.4482   3.5621   3.5985   3.7159   3.8494   4.0188   4.1782   4.2858
     4.4430   4.5292   4.5938   4.7368   4.9267   5.0387   5.0797   5.1823
     5.2360   5.4058   5.5001   5.5629   5.7155   5.7806   5.8600   5.9445
     6.1168   6.3284   6.3622   6.4778   6.5595   6.9293   7.1420   7.5167
    13.0340  14.2575  14.4318  14.9655  15.1280  15.4572  15.6593  15.7584
    15.9617  16.1386

     occupation numbers 
     1.0000   1.0000   1.0000   1.0000   1.0000   1.0000   1.0000   1.0000
     1.0000   1.0000   1.0000   1.0000   1.0000   1.0000   1.0000   1.0000
     1.0000   1.0000   1.0000   1.0000   1.0000   1.0000   1.0000   1.0000
     1.0000   1.0000   1.0000   1.0000   1.0000   1.0000   1.0000   1.0000
     1.0000   1.0000   1.0000   1.0000   1.0000   1.0000   1.0000   1.0000
     1.0000   1.0000   1.0000   1.0000   1.0000   1.0000   1.0000   1.0000
     1.0000   1.0000   1.0000   1.0000   1.0000   1.0000   1.0000   1.0000
     1.0000   1.0000   1.0000   1.0000   1.0000   1.0000   1.0000   1.0000
     1.0000   1.0000   1.0000   1.0000   1.0000   1.0000   1.0000   1.0000
     1.0000   1.0000   1.0000   1.0000   1.0000   1.0000   1.0000   1.0000
     1.0000   1.0000   1.0000   1.0000   1.0000   1.0000   1.0000   1.0000
     1.0000   1.0000   1.0000   1.0000   1.0000   1.0000   1.0000   1.0000
     1.0000   1.0000   1.0000   1.0000   1.0000   1.0000   1.0000   1.0000
     0.0000   0.0000   0.0000   0.0000   0.0000   0.0000   0.0000   0.0000
     0.0000   0.0000

          k = 0.0000 0.0000 0.9349 ( 31288 PWs)   bands (ev):

   -83.0270 -82.9785 -82.8354 -82.5612 -49.1503 -49.1239 -49.1123 -49.0369
   -48.9565 -48.9530 -48.9071 -48.7983 -48.7768 -48.6822 -48.5754 -48.3888
   -42.4885 -15.5228 -15.4753 -15.2872 -15.1908 -14.6090 -14.5520 -14.4014
   -12.9997 -12.8237 -12.6692 -12.5231 -12.4810 -12.4317 -12.3820 -12.3234
   -12.3039 -12.1945 -12.1820 -12.0812  -2.7396  -2.2787  -2.0970  -1.8904
    -1.1634  -0.8174  -0.6176  -0.5560  -0.4136  -0.2647  -0.2188   0.0994
     0.2000   0.2849   0.3282   0.4753   1.0275   1.3412   1.3846   1.4775
     1.7390   1.8379   1.9137   2.0649   2.1159   2.1964   2.2983   2.4026
     2.5183   2.7144   2.7387   2.8958   3.0044   3.1037   3.1987   3.2433
     3.3740   3.4328   3.5582   3.7591   3.8379   4.1032   4.2012   4.2764
     4.3528   4.4235   4.5543   4.7392   4.9533   5.0562   5.1359   5.2131
     5.2973   5.4429   5.5134   5.6084   5.7315   5.7858   5.8094   5.8748
     6.1313   6.2987   6.3736   6.4985   6.5710   6.9294   7.1393   7.4943
    13.5736  14.2900  14.4733  14.6747  15.1568  15.5308  15.6318  15.7457
    15.8745  16.0868

     occupation numbers 
     1.0000   1.0000   1.0000   1.0000   1.0000   1.0000   1.0000   1.0000
     1.0000   1.0000   1.0000   1.0000   1.0000   1.0000   1.0000   1.0000
     1.0000   1.0000   1.0000   1.0000   1.0000   1.0000   1.0000   1.0000
     1.0000   1.0000   1.0000   1.0000   1.0000   1.0000   1.0000   1.0000
     1.0000   1.0000   1.0000   1.0000   1.0000   1.0000   1.0000   1.0000
     1.0000   1.0000   1.0000   1.0000   1.0000   1.0000   1.0000   1.0000
     1.0000   1.0000   1.0000   1.0000   1.0000   1.0000   1.0000   1.0000
     1.0000   1.0000   1.0000   1.0000   1.0000   1.0000   1.0000   1.0000
     1.0000   1.0000   1.0000   1.0000   1.0000   1.0000   1.0000   1.0000
     1.0000   1.0000   1.0000   1.0000   1.0000   1.0000   1.0000   1.0000
     1.0000   1.0000   1.0000   1.0000   1.0000   1.0000   1.0000   1.0000
     1.0000   1.0000   1.0000   1.0000   1.0000   1.0000   1.0000   1.0000
     1.0000   1.0000   1.0000   1.0000   1.0000   1.0000   1.0000   1.0000
     0.0000   0.0000   0.0000   0.0000   0.0000   0.0000   0.0000   0.0000
     0.0000   0.0000

          k = 0.0000 0.2391 0.0000 ( 31251 PWs)   bands (ev):

   -83.0270 -82.9785 -82.8354 -82.5612 -49.1503 -49.1239 -49.1123 -49.0369
   -48.9565 -48.9530 -48.9071 -48.7983 -48.7768 -48.6822 -48.5754 -48.3888
   -42.4885 -15.6818 -15.4489 -15.3833 -15.2248 -14.5871 -14.5443 -14.4280
   -12.8894 -12.6875 -12.6261 -12.5351 -12.4825 -12.3691 -12.3421 -12.3152
   -12.2313 -12.1745 -12.1410 -12.0848  -3.0198  -2.4088  -2.1885  -1.8161
    -1.1831  -0.9919  -0.7702  -0.6995  -0.4108  -0.2232  -0.0766   0.0094
     0.0992   0.1942   0.2906   0.4364   0.9899   1.1214   1.3191   1.5317
     1.6320   1.7506   1.8797   1.9555   2.0785   2.1281   2.3096   2.3626
     2.5330   2.7012   2.9049   3.0469   3.1681   3.2679   3.3168   3.3761
     3.4432   3.6005   3.7726   3.8906   3.9707   4.1484   4.2675   4.3220
     4.5487   4.7082   4.7328   4.8388   4.8850   4.8985   4.9965   5.0844
     5.2542   5.3343   5.4707   5.5153   5.6455   5.7536   5.8540   5.9550
     6.1536   6.1993   6.3836   6.4895   6.6770   6.9955   7.2857   7.5948
    12.1205  14.0457  14.0950  14.7193  15.0044  15.6836  15.8567  15.9544
    16.2337  16.4115

     occupation numbers 
     1.0000   1.0000   1.0000   1.0000   1.0000   1.0000   1.0000   1.0000
     1.0000   1.0000   1.0000   1.0000   1.0000   1.0000   1.0000   1.0000
     1.0000   1.0000   1.0000   1.0000   1.0000   1.0000   1.0000   1.0000
     1.0000   1.0000   1.0000   1.0000   1.0000   1.0000   1.0000   1.0000
     1.0000   1.0000   1.0000   1.0000   1.0000   1.0000   1.0000   1.0000
     1.0000   1.0000   1.0000   1.0000   1.0000   1.0000   1.0000   1.0000
     1.0000   1.0000   1.0000   1.0000   1.0000   1.0000   1.0000   1.0000
     1.0000   1.0000   1.0000   1.0000   1.0000   1.0000   1.0000   1.0000
     1.0000   1.0000   1.0000   1.0000   1.0000   1.0000   1.0000   1.0000
     1.0000   1.0000   1.0000   1.0000   1.0000   1.0000   1.0000   1.0000
     1.0000   1.0000   1.0000   1.0000   1.0000   1.0000   1.0000   1.0000
     1.0000   1.0000   1.0000   1.0000   1.0000   1.0000   1.0000   1.0000
     1.0000   1.0000   1.0000   1.0000   1.0000   1.0000   1.0000   1.0000
     0.0000   0.0000   0.0000   0.0000   0.0000   0.0000   0.0000   0.0000
     0.0000   0.0000

          k = 0.0000 0.2391 0.2337 ( 31298 PWs)   bands (ev):

   -83.0270 -82.9785 -82.8354 -82.5612 -49.1503 -49.1239 -49.1123 -49.0369
   -48.9565 -48.9530 -48.9071 -48.7983 -48.7768 -48.6822 -48.5754 -48.3888
   -42.4885 -15.6656 -15.4373 -15.3839 -15.2256 -14.5802 -14.5475 -14.4236
   -12.9056 -12.6975 -12.6411 -12.5264 -12.4767 -12.3904 -12.3479 -12.3226
   -12.2311 -12.1802 -12.1404 -12.0870  -2.9907  -2.3949  -2.1719  -1.7932
    -1.1603  -0.9841  -0.8028  -0.6433  -0.3917  -0.1819  -0.0984   0.0310
     0.0850   0.1505   0.2564   0.4912   1.0143   1.1375   1.3015   1.5428
     1.6628   1.7518   1.8681   1.9541   1.9990   2.1332   2.3043   2.3684
     2.4890   2.6620   2.8701   3.0082   3.2117   3.2466   3.3526   3.4389
     3.4923   3.5839   3.7429   3.9161   4.0243   4.0990   4.2418   4.2787
     4.5796   4.6663   4.7293   4.8115   4.8531   4.9082   4.9760   5.0407
     5.2471   5.3552   5.4674   5.5354   5.6538   5.7465   5.8424   5.9659
     6.0966   6.2533   6.3834   6.4861   6.6932   6.9938   7.2845   7.5784
    12.2635  14.1074  14.1657  14.7082  15.0727  15.6934  15.7599  15.9679
    16.2053  16.4585

     occupation numbers 
     1.0000   1.0000   1.0000   1.0000   1.0000   1.0000   1.0000   1.0000
     1.0000   1.0000   1.0000   1.0000   1.0000   1.0000   1.0000   1.0000
     1.0000   1.0000   1.0000   1.0000   1.0000   1.0000   1.0000   1.0000
     1.0000   1.0000   1.0000   1.0000   1.0000   1.0000   1.0000   1.0000
     1.0000   1.0000   1.0000   1.0000   1.0000   1.0000   1.0000   1.0000
     1.0000   1.0000   1.0000   1.0000   1.0000   1.0000   1.0000   1.0000
     1.0000   1.0000   1.0000   1.0000   1.0000   1.0000   1.0000   1.0000
     1.0000   1.0000   1.0000   1.0000   1.0000   1.0000   1.0000   1.0000
     1.0000   1.0000   1.0000   1.0000   1.0000   1.0000   1.0000   1.0000
     1.0000   1.0000   1.0000   1.0000   1.0000   1.0000   1.0000   1.0000
     1.0000   1.0000   1.0000   1.0000   1.0000   1.0000   1.0000   1.0000
     1.0000   1.0000   1.0000   1.0000   1.0000   1.0000   1.0000   1.0000
     1.0000   1.0000   1.0000   1.0000   1.0000   1.0000   1.0000   1.0000
     0.0000   0.0000   0.0000   0.0000   0.0000   0.0000   0.0000   0.0000
     0.0000   0.0000

          k = 0.0000 0.2391 0.4675 ( 31274 PWs)   bands (ev):

   -83.0270 -82.9785 -82.8354 -82.5612 -49.1503 -49.1239 -49.1123 -49.0369
   -48.9565 -48.9530 -48.9071 -48.7983 -48.7768 -48.6822 -48.5754 -48.3888
   -42.4885 -15.6248 -15.4204 -15.3754 -15.2158 -14.5832 -14.5442 -14.4131
   -12.9449 -12.7266 -12.6685 -12.5249 -12.4661 -12.4273 -12.3521 -12.3311
   -12.2603 -12.1905 -12.1443 -12.0823  -2.8996  -2.3542  -2.1436  -1.7638
    -1.1409  -0.9481  -0.7602  -0.5911  -0.3891  -0.1609  -0.1058   0.0320
     0.1147   0.1521   0.2384   0.5325   1.0111   1.1985   1.3118   1.5518
     1.6343   1.7123   1.8540   1.9342   2.0341   2.1471   2.2880   2.3600
     2.4811   2.6584   2.8222   2.9877   3.1538   3.2588   3.4014   3.4251
     3.5376   3.5905   3.6528   3.8287   3.9425   4.1074   4.1928   4.3276
     4.4845   4.5655   4.6832   4.7945   4.8426   4.9239   4.9877   5.0582
     5.2436   5.3492   5.4447   5.5568   5.6609   5.7773   5.8520   5.9624
     6.0809   6.2758   6.3992   6.4620   6.7033   7.0088   7.2555   7.5556
    12.6417  14.2288  14.3291  14.7758  15.2024  15.5339  15.6771  15.9140
    16.1722  16.3197

     occupation numbers 
     1.0000   1.0000   1.0000   1.0000   1.0000   1.0000   1.0000   1.0000
     1.0000   1.0000   1.0000   1.0000   1.0000   1.0000   1.0000   1.0000
     1.0000   1.0000   1.0000   1.0000   1.0000   1.0000   1.0000   1.0000
     1.0000   1.0000   1.0000   1.0000   1.0000   1.0000   1.0000   1.0000
     1.0000   1.0000   1.0000   1.0000   1.0000   1.0000   1.0000   1.0000
     1.0000   1.0000   1.0000   1.0000   1.0000   1.0000   1.0000   1.0000
     1.0000   1.0000   1.0000   1.0000   1.0000   1.0000   1.0000   1.0000
     1.0000   1.0000   1.0000   1.0000   1.0000   1.0000   1.0000   1.0000
     1.0000   1.0000   1.0000   1.0000   1.0000   1.0000   1.0000   1.0000
     1.0000   1.0000   1.0000   1.0000   1.0000   1.0000   1.0000   1.0000
     1.0000   1.0000   1.0000   1.0000   1.0000   1.0000   1.0000   1.0000
     1.0000   1.0000   1.0000   1.0000   1.0000   1.0000   1.0000   1.0000
     1.0000   1.0000   1.0000   1.0000   1.0000   1.0000   1.0000   1.0000
     0.0000   0.0000   0.0000   0.0000   0.0000   0.0000   0.0000   0.0000
     0.0000   0.0000

          k = 0.0000 0.2391 0.7012 ( 31293 PWs)   bands (ev):

   -83.0270 -82.9785 -82.8354 -82.5612 -49.1503 -49.1239 -49.1123 -49.0369
   -48.9565 -48.9530 -48.9071 -48.7983 -48.7768 -48.6822 -48.5754 -48.3888
   -42.4885 -15.5713 -15.4250 -15.3481 -15.2001 -14.5901 -14.5374 -14.4049
   -12.9871 -12.7785 -12.6855 -12.5338 -12.4843 -12.4383 -12.3576 -12.3287
   -12.2867 -12.2006 -12.1517 -12.0818  -2.7850  -2.2953  -2.1194  -1.7707
    -1.1609  -0.8633  -0.6674  -0.5562  -0.3982  -0.2040  -0.1263   0.0395
     0.1540   0.2227   0.2858   0.5162   0.9895   1.2423   1.3823   1.5267
     1.6414   1.7620   1.8300   1.9551   2.0834   2.1774   2.2792   2.3923
     2.5063   2.6489   2.7771   2.9228   3.1082   3.1753   3.3191   3.3734
     3.4215   3.5455   3.6278   3.7111   3.8661   4.1417   4.2003   4.3119
     4.4014   4.4827   4.5812   4.7686   4.8743   4.9654   5.0270   5.1534
     5.2639   5.3517   5.4490   5.5445   5.7060   5.7993   5.8516   5.9114
     6.0966   6.2806   6.4154   6.4405   6.7078   7.0321   7.2205   7.5349
    13.1606  14.3517  14.4684  14.8674  15.1782  15.4136  15.5965  15.8021
    16.0967  16.2146

     occupation numbers 
     1.0000   1.0000   1.0000   1.0000   1.0000   1.0000   1.0000   1.0000
     1.0000   1.0000   1.0000   1.0000   1.0000   1.0000   1.0000   1.0000
     1.0000   1.0000   1.0000   1.0000   1.0000   1.0000   1.0000   1.0000
     1.0000   1.0000   1.0000   1.0000   1.0000   1.0000   1.0000   1.0000
     1.0000   1.0000   1.0000   1.0000   1.0000   1.0000   1.0000   1.0000
     1.0000   1.0000   1.0000   1.0000   1.0000   1.0000   1.0000   1.0000
     1.0000   1.0000   1.0000   1.0000   1.0000   1.0000   1.0000   1.0000
     1.0000   1.0000   1.0000   1.0000   1.0000   1.0000   1.0000   1.0000
     1.0000   1.0000   1.0000   1.0000   1.0000   1.0000   1.0000   1.0000
     1.0000   1.0000   1.0000   1.0000   1.0000   1.0000   1.0000   1.0000
     1.0000   1.0000   1.0000   1.0000   1.0000   1.0000   1.0000   1.0000
     1.0000   1.0000   1.0000   1.0000   1.0000   1.0000   1.0000   1.0000
     1.0000   1.0000   1.0000   1.0000   1.0000   1.0000   1.0000   1.0000
     0.0000   0.0000   0.0000   0.0000   0.0000   0.0000   0.0000   0.0000
     0.0000   0.0000

          k = 0.0000 0.2391 0.9349 ( 31292 PWs)   bands (ev):

   -83.0270 -82.9785 -82.8354 -82.5612 -49.1503 -49.1239 -49.1123 -49.0369
   -48.9565 -48.9530 -48.9071 -48.7983 -48.7768 -48.6822 -48.5754 -48.3888
   -42.4885 -15.5214 -15.4570 -15.3099 -15.1912 -14.5990 -14.5308 -14.4022
   -13.0103 -12.8216 -12.6922 -12.5401 -12.5096 -12.4363 -12.3684 -12.3175
   -12.2999 -12.2015 -12.1618 -12.0829  -2.6962  -2.2414  -2.1034  -1.8309
    -1.1584  -0.8123  -0.6026  -0.5336  -0.3965  -0.2422  -0.1846   0.0679
     0.1899   0.2909   0.3436   0.4744   0.9715   1.2685   1.4148   1.5149
     1.7353   1.8217   1.8474   1.9844   2.0656   2.2202   2.3179   2.4600
     2.5288   2.6139   2.7387   2.8663   2.9859   3.0791   3.1915   3.3115
     3.3696   3.4424   3.5651   3.7389   3.8526   4.1575   4.1890   4.2579
     4.3485   4.4007   4.5508   4.7576   4.9390   5.0081   5.0756   5.2188
     5.2916   5.3440   5.4658   5.5677   5.7187   5.7659   5.8479   5.9122
     6.0982   6.2876   6.3947   6.4542   6.7056   7.0266   7.2219   7.5172
    13.6739  14.3198  14.5714  14.7203  15.1056  15.4665  15.6013  15.7807
    16.0112  16.1276

     occupation numbers 
     1.0000   1.0000   1.0000   1.0000   1.0000   1.0000   1.0000   1.0000
     1.0000   1.0000   1.0000   1.0000   1.0000   1.0000   1.0000   1.0000
     1.0000   1.0000   1.0000   1.0000   1.0000   1.0000   1.0000   1.0000
     1.0000   1.0000   1.0000   1.0000   1.0000   1.0000   1.0000   1.0000
     1.0000   1.0000   1.0000   1.0000   1.0000   1.0000   1.0000   1.0000
     1.0000   1.0000   1.0000   1.0000   1.0000   1.0000   1.0000   1.0000
     1.0000   1.0000   1.0000   1.0000   1.0000   1.0000   1.0000   1.0000
     1.0000   1.0000   1.0000   1.0000   1.0000   1.0000   1.0000   1.0000
     1.0000   1.0000   1.0000   1.0000   1.0000   1.0000   1.0000   1.0000
     1.0000   1.0000   1.0000   1.0000   1.0000   1.0000   1.0000   1.0000
     1.0000   1.0000   1.0000   1.0000   1.0000   1.0000   1.0000   1.0000
     1.0000   1.0000   1.0000   1.0000   1.0000   1.0000   1.0000   1.0000
     1.0000   1.0000   1.0000   1.0000   1.0000   1.0000   1.0000   1.0000
     0.0000   0.0000   0.0000   0.0000   0.0000   0.0000   0.0000   0.0000
     0.0000   0.0000

          k = 0.0000 0.4781 0.0000 ( 31226 PWs)   bands (ev):

   -83.0270 -82.9785 -82.8354 -82.5612 -49.1503 -49.1239 -49.1123 -49.0369
   -48.9565 -48.9530 -48.9071 -48.7983 -48.7768 -48.6822 -48.5754 -48.3888
   -42.4885 -15.6706 -15.4654 -15.3500 -15.2348 -14.5888 -14.5186 -14.4237
   -12.9205 -12.7206 -12.6363 -12.5809 -12.4710 -12.3837 -12.3252 -12.3007
   -12.2389 -12.1796 -12.1282 -12.0806  -2.9139  -2.3229  -2.2189  -1.8067
    -1.1206  -0.8841  -0.7679  -0.6393  -0.3909  -0.2596  -0.0675   0.0786
     0.0945   0.2488   0.3320   0.4589   0.9383   1.0760   1.2848   1.4079
     1.5463   1.6704   1.7970   1.9169   2.0424   2.1040   2.3640   2.4358
     2.5991   2.7442   2.8795   3.0215   3.0899   3.1784   3.3155   3.3581
     3.4539   3.5896   3.7217   3.8187   3.9325   4.1099   4.2184   4.3597
     4.5861   4.6387   4.6793   4.8155   4.8553   4.9355   4.9948   5.0619
     5.2449   5.3056   5.4158   5.5174   5.6238   5.7196   5.8379   5.8962
     6.0859   6.1638   6.3629   6.5148   6.8488   7.1836   7.4531   7.6315
    12.5508  14.2038  14.3610  14.4830  15.0402  15.4594  15.7575  15.8867
    16.1324  16.3108

     occupation numbers 
     1.0000   1.0000   1.0000   1.0000   1.0000   1.0000   1.0000   1.0000
     1.0000   1.0000   1.0000   1.0000   1.0000   1.0000   1.0000   1.0000
     1.0000   1.0000   1.0000   1.0000   1.0000   1.0000   1.0000   1.0000
     1.0000   1.0000   1.0000   1.0000   1.0000   1.0000   1.0000   1.0000
     1.0000   1.0000   1.0000   1.0000   1.0000   1.0000   1.0000   1.0000
     1.0000   1.0000   1.0000   1.0000   1.0000   1.0000   1.0000   1.0000
     1.0000   1.0000   1.0000   1.0000   1.0000   1.0000   1.0000   1.0000
     1.0000   1.0000   1.0000   1.0000   1.0000   1.0000   1.0000   1.0000
     1.0000   1.0000   1.0000   1.0000   1.0000   1.0000   1.0000   1.0000
     1.0000   1.0000   1.0000   1.0000   1.0000   1.0000   1.0000   1.0000
     1.0000   1.0000   1.0000   1.0000   1.0000   1.0000   1.0000   1.0000
     1.0000   1.0000   1.0000   1.0000   1.0000   1.0000   1.0000   1.0000
     1.0000   1.0000   1.0000   1.0000   1.0000   1.0000   1.0000   1.0000
     0.0000   0.0000   0.0000   0.0000   0.0000   0.0000   0.0000   0.0000
     0.0000   0.0000

          k = 0.0000 0.4781 0.2337 ( 31258 PWs)   bands (ev):

   -83.0270 -82.9785 -82.8354 -82.5612 -49.1503 -49.1239 -49.1123 -49.0369
   -48.9565 -48.9530 -48.9071 -48.7983 -48.7768 -48.6822 -48.5754 -48.3888
   -42.4885 -15.6536 -15.4552 -15.3516 -15.2361 -14.5863 -14.5108 -14.4222
   -12.9325 -12.7324 -12.6520 -12.5708 -12.4779 -12.3978 -12.3367 -12.3140
   -12.2258 -12.1842 -12.1265 -12.0862  -2.8898  -2.3022  -2.1938  -1.7857
    -1.0986  -0.8747  -0.7883  -0.5975  -0.3697  -0.2323  -0.0466   0.0436
     0.1069   0.1953   0.3058   0.5051   0.9387   1.0975   1.2661   1.4254
     1.6340   1.6682   1.8004   1.8837   2.0052   2.0789   2.3462   2.3971
     2.5084   2.6856   2.8548   2.9552   3.1089   3.2559   3.3677   3.4358
     3.5081   3.5675   3.7129   3.8470   3.9800   4.0817   4.2303   4.2921
     4.5407   4.6584   4.6860   4.7508   4.8680   4.9017   4.9563   5.0352
     5.2090   5.3085   5.4456   5.5520   5.6179   5.7197   5.7966   5.9348
     6.0325   6.2026   6.3763   6.5166   6.8770   7.1613   7.4675   7.6113
    12.6810  14.2767  14.4075  14.4817  15.0508  15.5821  15.6957  15.8926
    16.1689  16.2604

     occupation numbers 
     1.0000   1.0000   1.0000   1.0000   1.0000   1.0000   1.0000   1.0000
[...]
     atom    5 type  1   force =     0.00353926    0.02690113   -0.01444764
     atom    6 type  4   force =    -0.01592751    0.01104669   -0.00555453
     atom    7 type  4   force =    -0.00504698    0.00473040   -0.01707341
     atom    8 type  4   force =     0.01447487   -0.01598297   -0.00261425
     atom    9 type  4   force =     0.00230745    0.00289316    0.01054976
     atom   10 type  3   force =     0.03398030    0.01236778    0.10751951
     atom   11 type  3   force =    -0.00608683   -0.01223686    0.12020293
     atom   12 type  3   force =    -0.04236973   -0.01987272   -0.10236588
     atom   13 type  3   force =     0.01792544    0.01325132   -0.12572780
     atom   14 type  3   force =    -0.12476619    0.01154992    0.04041926
     atom   15 type  3   force =     0.11846438   -0.05945719   -0.00480635
     atom   16 type  3   force =     0.13262633   -0.00841230   -0.04517362
     atom   17 type  3   force =    -0.11633403    0.05946025   -0.00783395
     atom   18 type  3   force =     0.04370623    0.11552920   -0.04912225
     atom   19 type  3   force =    -0.04152800   -0.07362639   -0.07895469
     atom   20 type  3   force =     0.01033090    0.13182680    0.08521616
     atom   21 type  3   force =     0.00181344   -0.08897354    0.04001247
     atom   22 type  3   force =    -0.03768206   -0.10668162    0.05758204
     atom   23 type  3   force =     0.04907346    0.06567173    0.08139818
     atom   24 type  3   force =    -0.01226052   -0.12275119   -0.09041918
     atom   25 type  3   force =    -0.01812654    0.09042062   -0.04803650
     The non-local contrib.  to forces
     atom    1 type  2   force =    -0.07274502    0.00186238   -0.03412379
     atom    2 type  1   force =     0.05728584   -0.13367533   -0.03796196
     atom    3 type  1   force =     0.00020577   -0.06101260    0.17172974
     atom    4 type  1   force =    -0.04654968    0.11680394    0.14730215
     atom    5 type  1   force =     0.02155504    0.06354845   -0.07082260
     atom    6 type  4   force =    -0.05011904    0.05561824    0.01473776
     atom    7 type  4   force =    -0.03690508    0.02528074   -0.06686986
     atom    8 type  4   force =     0.00316508   -0.04099906   -0.03450633
     atom    9 type  4   force =     0.02739431   -0.00810395    0.05408294
     atom   10 type  3   force =    -0.36572249   -0.12593225   -1.15797260
     atom   11 type  3   force =    -0.01118757    0.17220608   -1.37395431
     atom   12 type  3   force =     0.47406507    0.11452070    1.15124388
     atom   13 type  3   force =    -0.05718498   -0.20287764    1.35515610
     atom   14 type  3   force =     1.27882475   -0.15387808   -0.50400292
     atom   15 type  3   force =    -1.16461940    0.65109172   -0.08666126
     atom   16 type  3   force =    -1.32543286    0.11354734    0.51741660
     atom   17 type  3   force =     1.12563430   -0.65825272    0.21680201
     atom   18 type  3   force =    -0.38825046   -1.28834046    0.64220872
     atom   19 type  3   force =     0.51955828    0.74186168    0.91956273
     atom   20 type  3   force =    -0.05947808   -1.41283814   -0.93729377
     atom   21 type  3   force =    -0.11796765    0.98866016   -0.62480557
     atom   22 type  3   force =     0.33764602    1.21605183   -0.68680796
     atom   23 type  3   force =    -0.55720290   -0.68208666   -0.95436701
     atom   24 type  3   force =     0.07391967    1.42138955    0.97674244
     atom   25 type  3   force =     0.28659783   -0.95620364    0.63791965
     The ionic contribution  to forces
     atom    1 type  2   force =    -2.00654985    3.99572444    2.50939678
     atom    2 type  1   force =    15.10628745   -0.24871862   -1.06421413
     atom    3 type  1   force =     3.84058876   -7.19278287   -3.84275248
     atom    4 type  1   force =   -11.73295162   -4.32375153    3.38879386
     atom    5 type  1   force =    -7.82939306    8.91023787    1.55952777
     atom    6 type  4   force =    -0.41566661    1.48711455   -0.95514506
     atom    7 type  4   force =     4.40491221   -0.04727349    1.12526444
     atom    8 type  4   force =     1.73784708   -2.84253235    0.91586813
     atom    9 type  4   force =    -4.61001270    0.82889317   -1.40280973
     atom   10 type  3   force =    -0.69452126    1.83881703   -1.38333127
     atom   11 type  3   force =     9.20424896   -2.44722361    2.31160237
     atom   12 type  3   force =     2.01374995   -7.53299442   -1.48350899
     atom   13 type  3   force =    -9.35252250    3.89172188   -2.34808557
     atom   14 type  3   force =     1.59688479    0.61617458    7.63947576
     atom   15 type  3   force =    -0.41229206   -4.25847026    2.68195956
     atom   16 type  3   force =    -0.79106208   -0.67830690   -8.09171992
     atom   17 type  3   force =     0.20415095    7.19956862   -4.11270430
     atom   18 type  3   force =    -1.14339162    8.84755679    4.28370316
     atom   19 type  3   force =     5.62548011   -0.83851084   -4.64248147
     atom   20 type  3   force =     3.39667203    2.41150518    9.47836523
     atom   21 type  3   force =   -10.79350716   -0.94305260    0.37645550
     atom   22 type  3   force =     2.50194490   -6.61800147   -1.51565274
     atom   23 type  3   force =    -4.32691115    1.19368422    5.16527035
     atom   24 type  3   force =    -4.30460500   -4.80077281   -9.54909305
     atom   25 type  3   force =     8.78061948    1.55139346   -1.04418419
     The local contribution  to forces
     atom    1 type  2   force =     2.07114702   -4.00116476   -2.46205622
     atom    2 type  1   force =   -15.14785715    0.36244535    1.09388848
     atom    3 type  1   force =    -3.84568535    7.22484261    3.69017651
     atom    4 type  1   force =    11.76762626    4.21854995   -3.50845990
     atom    5 type  1   force =     7.81267395   -8.94709130   -1.50242002
     atom    6 type  4   force =     0.44477311   -1.52876124    0.93522275
     atom    7 type  4   force =    -4.37479270    0.02865776   -1.07916167
     atom    8 type  4   force =    -1.72421927    2.86484688   -0.88615546
     atom    9 type  4   force =     4.58609808   -0.81798251    1.36159349
     atom   10 type  3   force =     1.09210556   -1.70145282    2.64055186
     atom   11 type  3   force =    -9.20000821    2.26426803   -0.82741794
     atom   12 type  3   force =    -2.52705235    7.39942583    0.23834817
     atom   13 type  3   force =     9.42807731   -3.67743760    0.87694382
     atom   14 type  3   force =    -2.99158873   -0.45196227   -7.09933802
     atom   15 type  3   force =     1.68743800    3.55302658   -2.60140491
     atom   16 type  3   force =     2.23991296    0.55723053    7.53352540
     atom   17 type  3   force =    -1.43835161   -6.48720362    3.89030662
     atom   18 type  3   force =     1.57314422   -7.45375279   -4.97052911
     atom   19 type  3   force =    -6.18275471    0.02801857    3.65106082
     atom   20 type  3   force =    -3.32759256   -0.87719668   -8.46338524
     atom   21 type  3   force =    10.91262187   -0.12744717    0.28358118
     atom   22 type  3   force =    -2.87549503    5.30477965    2.25522409
     atom   23 type  3   force =     4.92917050   -0.45043819   -4.13681740
     atom   24 type  3   force =     4.21928491    3.26701110    8.48981467
     atom   25 type  3   force =    -9.08326198   -0.51162823    0.36314190
     The core correction contribution to forces
     atom    1 type  2   force =     0.00000000    0.00000000    0.00000000
     atom    2 type  1   force =    -0.00315297    0.00268610    0.00134634
     atom    3 type  1   force =     0.00078739    0.00190702   -0.00158359
     atom    4 type  1   force =     0.00344733   -0.00136980   -0.00225263
     atom    5 type  1   force =    -0.00129780    0.00020505   -0.00073201
     atom    6 type  4   force =     0.00508313   -0.00292546   -0.00036936
     atom    7 type  4   force =     0.00173930   -0.00193449    0.00369389
     atom    8 type  4   force =    -0.00231922    0.00270184    0.00217934
     atom    9 type  4   force =    -0.00117070    0.00008611   -0.00231647
     atom   10 type  3   force =     0.00211538    0.00093464    0.00826999
     atom   11 type  3   force =     0.00086015   -0.00148699    0.00997433
     atom   12 type  3   force =    -0.00313379   -0.00082400   -0.00844906
     atom   13 type  3   force =    -0.00044238    0.00184393   -0.00974286
     atom   14 type  3   force =    -0.00888310    0.00121539    0.00428566
     atom   15 type  3   force =     0.00793689   -0.00510502    0.00129992
     atom   16 type  3   force =     0.00921031   -0.00088316   -0.00439510
     atom   17 type  3   force =    -0.00777046    0.00534705   -0.00223733
     atom   18 type  3   force =     0.00220079    0.01006677   -0.00450296
     atom   19 type  3   force =    -0.00381143   -0.00499232   -0.00709785
     atom   20 type  3   force =     0.00072722    0.01035670    0.00752926
     atom   21 type  3   force =     0.00066814   -0.00713441    0.00478250
     atom   22 type  3   force =    -0.00177965   -0.00951179    0.00481944
     atom   23 type  3   force =     0.00401794    0.00451212    0.00731273
     atom   24 type  3   force =    -0.00086128   -0.01038069   -0.00788199
     atom   25 type  3   force =    -0.00208153    0.00685587   -0.00491499
     The Hubbard contrib.    to forces
     atom    1 type  2   force =     0.00000000    0.00000000    0.00000000
     atom    2 type  1   force =     0.00000000    0.00000000    0.00000000
     atom    3 type  1   force =     0.00000000    0.00000000    0.00000000
     atom    4 type  1   force =     0.00000000    0.00000000    0.00000000
     atom    5 type  1   force =     0.00000000    0.00000000    0.00000000
     atom    6 type  4   force =     0.00000000    0.00000000    0.00000000
     atom    7 type  4   force =     0.00000000    0.00000000    0.00000000
     atom    8 type  4   force =     0.00000000    0.00000000    0.00000000
     atom    9 type  4   force =     0.00000000    0.00000000    0.00000000
     atom   10 type  3   force =     0.00000000    0.00000000    0.00000000
     atom   11 type  3   force =     0.00000000    0.00000000    0.00000000
     atom   12 type  3   force =     0.00000000    0.00000000    0.00000000
     atom   13 type  3   force =     0.00000000    0.00000000    0.00000000
     atom   14 type  3   force =     0.00000000    0.00000000    0.00000000
     atom   15 type  3   force =     0.00000000    0.00000000    0.00000000
     atom   16 type  3   force =     0.00000000    0.00000000    0.00000000
     atom   17 type  3   force =     0.00000000    0.00000000    0.00000000
     atom   18 type  3   force =     0.00000000    0.00000000    0.00000000
     atom   19 type  3   force =     0.00000000    0.00000000    0.00000000
     atom   20 type  3   force =     0.00000000    0.00000000    0.00000000
     atom   21 type  3   force =     0.00000000    0.00000000    0.00000000
     atom   22 type  3   force =     0.00000000    0.00000000    0.00000000
     atom   23 type  3   force =     0.00000000    0.00000000    0.00000000
     atom   24 type  3   force =     0.00000000    0.00000000    0.00000000
     atom   25 type  3   force =     0.00000000    0.00000000    0.00000000
     The SCF correction term to forces
     atom    1 type  2   force =     0.00000326   -0.00000007    0.00000037
     atom    2 type  1   force =    -0.00000128   -0.00000035   -0.00000015
     atom    3 type  1   force =     0.00000063   -0.00000061    0.00000083
     atom    4 type  1   force =    -0.00000130   -0.00000021    0.00000037
     atom    5 type  1   force =     0.00000092    0.00000088   -0.00000058
     atom    6 type  4   force =     0.00000170    0.00000041   -0.00000041
     atom    7 type  4   force =    -0.00000093   -0.00000031   -0.00000001
     atom    8 type  4   force =     0.00000100   -0.00000047    0.00000027
     atom    9 type  4   force =    -0.00000173    0.00000015   -0.00000027
     atom   10 type  3   force =     0.00000290    0.00000099    0.00000174
     atom   11 type  3   force =    -0.00000035   -0.00000056   -0.00000132
     atom   12 type  3   force =     0.00000119   -0.00000102    0.00000033
     atom   13 type  3   force =    -0.00000221    0.00000055    0.00000092
     atom   14 type  3   force =    -0.00000410    0.00000011   -0.00000102
     atom   15 type  3   force =     0.00000075   -0.00000040    0.00000055
     atom   16 type  3   force =    -0.00000220   -0.00000029   -0.00000040
     atom   17 type  3   force =     0.00000259    0.00000073   -0.00000074
     atom   18 type  3   force =     0.00000309   -0.00000129   -0.00000186
     atom   19 type  3   force =    -0.00000045   -0.00000367    0.00000129
     atom   20 type  3   force =     0.00000209   -0.00000045    0.00000088
     atom   21 type  3   force =    -0.00000196    0.00000031   -0.00000093
     atom   22 type  3   force =     0.00000150   -0.00000004   -0.00000058
     atom   23 type  3   force =    -0.00000113    0.00000006   -0.00000029
     atom   24 type  3   force =     0.00000098    0.00000147   -0.00000104
     atom   25 type  3   force =    -0.00000054    0.00000296    0.00000134

     Total force =     0.511999     Total SCF correction =     0.000012


     Computing stress (Cartesian axis) and pressure


     negative rho (up, down):  0.000E+00 8.309E-04
          total   stress  (Ry/bohr**3)                   (kbar)     P=      359.86
   0.00235383  -0.00007714   0.00010932          346.26      -11.35       16.08
  -0.00007714   0.00246502  -0.00016108          -11.35      362.62      -23.70
   0.00010932  -0.00016108   0.00252005           16.08      -23.70      370.71

     kinetic stress (kbar)  31642.82     72.99    -40.88
                               72.99  31787.05     -8.64
                              -40.88     -8.64  31760.83

     local   stress (kbar)  -7411.59   4310.60  -8840.05
                             4310.60 -15563.01    740.21
                            -8840.05    740.21  -4231.22

     nonloc. stress (kbar)  -8206.02     12.90      5.27
                               12.90  -8150.13     -8.26
                                5.27     -8.26  -8157.16

     hartree stress (kbar)  15882.17  -1572.08   3659.42
                            -1572.08  20277.94   -212.08
                             3659.42   -212.08  15266.43

     exc-cor stress (kbar)  -3328.89     -4.01      4.17
                               -4.01  -3334.85     -1.33
                                4.17     -1.33  -3335.36

     corecor stress (kbar)  -3641.54      0.40     -1.39
                                0.40  -3641.62      0.94
                               -1.39      0.94  -3642.25

     ewald   stress (kbar) -24590.69  -2832.14   5229.55
                            -2832.14 -21012.76   -534.54
                             5229.55   -534.54 -27290.56

     hubbard stress (kbar)      0.00      0.00      0.00
                                0.00      0.00      0.00
                                0.00      0.00      0.00

     DFT-D   stress (kbar)      0.00      0.00      0.00
                                0.00      0.00      0.00
                                0.00      0.00      0.00

     XDM     stress (kbar)      0.00      0.00      0.00
                                0.00      0.00      0.00
                                0.00      0.00      0.00

     dft-nl  stress (kbar)      0.00      0.00      0.00
                                0.00      0.00      0.00
                                0.00      0.00      0.00

     TS-vdW  stress (kbar)      0.00      0.00      0.00
                                0.00      0.00      0.00
                                0.00      0.00      0.00



     init_run     :   2022.31s CPU   2491.73s WALL (       1 calls)
     electrons    : 144622.52s CPU 180362.33s WALL (       1 calls)
     forces       :    331.38s CPU    333.04s WALL (       1 calls)
     stress       :   1529.77s CPU   1536.21s WALL (       1 calls)

     Called by init_run:
     wfcinit      :   2004.73s CPU   2469.27s WALL (       1 calls)
     wfcinit:atom :      1.91s CPU      2.23s WALL (     316 calls)
     wfcinit:wfcr :   1993.98s CPU   2456.14s WALL (     316 calls)
     potinit      :      6.48s CPU      8.77s WALL (       1 calls)
     hinit0       :      6.77s CPU      8.06s WALL (       1 calls)

     Called by electrons:
     c_bands      : 120461.63s CPU 150352.19s WALL (      31 calls)
     sum_band     :  23908.68s CPU  29680.45s WALL (      31 calls)
     v_of_rho     :     68.44s CPU     84.76s WALL (      32 calls)
     v_h          :      4.61s CPU      5.90s WALL (      32 calls)
     v_xc         :     68.89s CPU     83.94s WALL (      34 calls)
     newd         :     98.60s CPU    138.33s WALL (      32 calls)
     PAW_pot      :     31.38s CPU     39.42s WALL (      32 calls)
     mix_rho      :     42.88s CPU     53.86s WALL (      31 calls)

     Called by c_bands:
     init_us_2    :    211.36s CPU    283.47s WALL (   20540 calls)
     cegterg      : 119290.18s CPU 148873.06s WALL (    9796 calls)

     Called by sum_band:
     sum_band:wei :      0.56s CPU      0.75s WALL (      31 calls)
     sum_band:loo :  23670.39s CPU  29356.89s WALL (      31 calls)
     sum_band:buf :     63.18s CPU     75.56s WALL (    9796 calls)
     sum_band:ini :     85.26s CPU    117.02s WALL (    9796 calls)
     sum_band:cal :   1742.71s CPU   2146.64s WALL (    9796 calls)
     sum_band:bec :      9.37s CPU     10.58s WALL (    9796 calls)
     addusdens    :    198.99s CPU    279.10s WALL (      31 calls)
     addusd:skk   :      1.39s CPU      1.85s WALL (      93 calls)
     addusd:dgemm :     65.34s CPU    107.37s WALL (     186 calls)
     addusd:qvan2 :    129.08s CPU    165.12s WALL (     186 calls)

     Called by *egterg:
     cdiaghg      :   3248.08s CPU   4065.25s WALL (   35959 calls)
     cegterg:over :   5223.29s CPU   6333.78s WALL (   26163 calls)
     cegterg:upda :    933.84s CPU   1188.14s WALL (   26163 calls)
     cegterg:last :   1957.75s CPU   2473.01s WALL (   16054 calls)
     h_psi        : 103000.31s CPU 128873.78s WALL (   36275 calls)
     s_psi        :   2141.24s CPU   2690.74s WALL (   36275 calls)
     g_psi        :     15.92s CPU     19.83s WALL (   26163 calls)

     Called by h_psi:
     h_psi:calbec :   4622.25s CPU   5639.10s WALL (   36275 calls)
     vloc_psi     :  96026.62s CPU 120199.60s WALL (   36275 calls)
     add_vuspsi   :   2261.96s CPU   2924.56s WALL (   36275 calls)

     General routines
     calbec       :   7140.76s CPU   8564.29s WALL (   47651 calls)
     fft          :    110.42s CPU    131.00s WALL (     838 calls)
     ffts         :      9.09s CPU     11.66s WALL (     126 calls)
     fftw         : 117440.78s CPU 146847.34s WALL ( 6075784 calls)
     interpolate  :     10.79s CPU     13.50s WALL (      64 calls)

     Parallel routines
     fft_scatt_xy :    432.27s CPU    437.01s WALL ( 6076748 calls)
     fft_scatt_yz : 114776.22s CPU 144106.21s WALL ( 6076748 calls)

     PAW routines
     PAW_pot      :     31.38s CPU     39.42s WALL (      32 calls)

     PWSCF        :   1d17h15m CPU   2d 3h19m WALL


   This run was terminated on:  16:43:30  17Jan2023            

=------------------------------------------------------------------------------=
   JOB DONE.
=------------------------------------------------------------------------------=
Note: The following floating-point exceptions are signalling: IEEE_UNDERFLOW_FLAG IEEE_DENORMAL
Note: The following floating-point exceptions are signalling: IEEE_DENORMAL
Note: The following floating-point exceptions are signalling: IEEE_DENORMAL
Note: The following floating-point exceptions are signalling: IEEE_DENORMAL
Note: The following floating-point exceptions are signalling: IEEE_DENORMAL
Note: The following floating-point exceptions are signalling: IEEE_DENORMAL
