
     Program PWSCF v.6.7MaX starts on 12Jan2023 at 20:42: 8 

     This program is part of the open-source Quantum ESPRESSO suite
     for quantum simulation of materials; please cite
         "P. Giannozzi et al., J. Phys.:Condens. Matter 21 395502 (2009);
         "P. Giannozzi et al., J. Phys.:Condens. Matter 29 465901 (2017);
          URL http://www.quantum-espresso.org", 
     in publications or presentations arising from this work. More details at
     http://www.quantum-espresso.org/quote

     Parallel version (MPI), running on    12 processors

     MPI processes distributed on     1 nodes
     R & G space division:  proc/nbgrp/npool/nimage =      12
     Reading input from scale_1da-05.in

     Current dimensions of program PWSCF are:
     Max number of different atomic species (ntypx) = 10
     Max number of k-points (npk) =  40000
     Max angular momentum in pseudopotentials (lmaxx) =  3
     Message from routine read_pp_mesh:
     mesh size missing, using the one in header
     file Fe.pbe-spn-kjpaw_psl.0.2.1.UPF: wavefunction(s)  3D renormalized
     file O.pbe-n-kjpaw_psl.0.1.UPF: wavefunction(s)  2P renormalized

     Subspace diagonalization in iterative solution of the eigenvalue problem:
     a serial algorithm will be used


     Parallelization info
     --------------------
     sticks:   dense  smooth     PW     G-vecs:    dense   smooth      PW
     Min        1738     643    174               113304    25531    3584
     Max        1739     644    175               113306    25534    3586
     Sum       20861    7725   2091              1359665   306383   43025



     bravais-lattice index     =            0
     lattice parameter (alat)  =      20.6483  a.u.
     unit-cell volume          =    2268.3757 (a.u.)^3
     number of atoms/cell      =           25
     number of atomic types    =            4
     number of electrons       =       189.00
     number of Kohn-Sham states=          114
     kinetic-energy cutoff     =     100.0000  Ry
     charge density cutoff     =    1080.0000  Ry
     scf convergence threshold =      2.0E-10
     mixing beta               =       0.4000
     number of iterations used =            8  plain     mixing
     Exchange-correlation= PBE
                           (   1   4   3   4   0   0   0)

     celldm(1)=  20.648310  celldm(2)=   0.000000  celldm(3)=   0.000000
     celldm(4)=   0.000000  celldm(5)=   0.000000  celldm(6)=   0.000000

     crystal axes: (cart. coord. in units of alat)
               a(1) = (   1.000000   0.000000   0.000000 )  
               a(2) = (   0.000000   0.569133   0.000000 )  
               a(3) = (   0.000000   0.000000   0.452739 )  

     reciprocal axes: (cart. coord. in units 2 pi/alat)
               b(1) = (  1.000000  0.000000  0.000000 )  
               b(2) = (  0.000000  1.757058  0.000000 )  
               b(3) = (  0.000000  0.000000  2.208780 )  


     PseudoPot. # 1 for Fe read from file:
     /opt/QEpot/SSSP_precision_pseudos/Fe.pbe-spn-kjpaw_psl.0.2.1.UPF
     MD5 check sum: e86618425769142926afa95317d90200
     Pseudo is Projector augmented-wave + core cor, Zval = 16.0
     Generated using "atomic" code by A. Dal Corso  v.5.0.99 svn rev. 10869
     Shape of augmentation charge: PSQ
     Using radial grid of 1191 points,  6 beta functions with: 
                l(1) =   0
                l(2) =   0
                l(3) =   1
                l(4) =   1
                l(5) =   2
                l(6) =   2
     Q(r) pseudized with 0 coefficients 


     PseudoPot. # 2 for Na read from file:
     /opt/QEpot/SSSP_precision_pseudos/Na_ONCV_PBE-1.0.oncvpsp.upf
     MD5 check sum: 24a298df0a6742ae313db96548fdb2a4
     Pseudo is Norm-conserving, Zval =  9.0
     Generated using ONCVPSP code by D. R. Hamann
     Using radial grid of 1992 points,  4 beta functions with: 
                l(1) =   0
                l(2) =   0
                l(3) =   1
                l(4) =   1

     PseudoPot. # 3 for O  read from file:
     /opt/QEpot/SSSP_precision_pseudos/O.pbe-n-kjpaw_psl.0.1.UPF
     MD5 check sum: 0234752ac141de4415c5fc33072bef88
     Pseudo is Projector augmented-wave + core cor, Zval =  6.0
     Generated using "atomic" code by A. Dal Corso  v.5.0.99 svn rev. 10869
     Shape of augmentation charge: BESSEL
     Using radial grid of 1095 points,  4 beta functions with: 
                l(1) =   0
                l(2) =   0
                l(3) =   1
                l(4) =   1
     Q(r) pseudized with 0 coefficients 


     PseudoPot. # 4 for P  read from file:
     /opt/QEpot/SSSP_precision_pseudos/P.pbe-n-rrkjus_psl.1.0.0.UPF
     MD5 check sum: 8b930f418f0a4573dca56cd030ffe088
     Pseudo is Ultrasoft + core correction, Zval =  5.0
     Generated using "atomic" code by A. Dal Corso  v.5.1
     Using radial grid of 1147 points,  6 beta functions with: 
                l(1) =   0
                l(2) =   0
                l(3) =   1
                l(4) =   1
                l(5) =   2
                l(6) =   2
     Q(r) pseudized with 0 coefficients 


     atomic species   valence    mass     pseudopotential
        Fe            16.00    55.84500     Fe( 1.00)
        Na             9.00    22.98977     Na( 1.00)
        O              6.00    15.99940     O ( 1.00)
        P              5.00    30.97376     P ( 1.00)

     Starting magnetic structure 
     atomic species   magnetization
        Fe           0.312
        Na           0.000
        O            0.000
        P            0.000

     No symmetry found


                                    s                        frac. trans.

      isym =  1     identity                                     

 cryst.   s( 1) = (     1          0          0      )
                  (     0          1          0      )
                  (     0          0          1      )

 cart.    s( 1) = (  1.0000000  0.0000000  0.0000000 )
                  (  0.0000000  1.0000000  0.0000000 )
                  (  0.0000000  0.0000000  1.0000000 )


   Cartesian axes

     site n.     atom                  positions (alat units)
         1           Na  tau(   1) = (   0.9908320   0.5101289   0.3725350  )
         2           Fe  tau(   2) = (   0.2986640   0.4381558   0.3882767  )
         3           Fe  tau(   3) = (   0.2176140   0.1723677   0.2181797  )
         4           Fe  tau(   4) = (   0.6993130   0.1311425   0.0543377  )
         5           Fe  tau(   5) = (   0.7827270   0.3792169   0.2125336  )
         6           P   tau(   6) = (   0.0964330   0.3989055   0.1401335  )
         7           P   tau(   7) = (   0.3931680   0.1431689   0.4165756  )
         8           P   tau(   8) = (   0.9083370   0.1841243   0.3108892  )
         9           P   tau(   9) = (   0.6077760   0.4266798   0.0157213  )
        10           O   tau(  10) = (   0.1605150   0.4138390   0.2672271  )
        11           O   tau(  11) = (   0.3515630   0.1410233   0.0987368  )
        12           O   tau(  12) = (   0.8284030   0.1884036   0.1883343  )
        13           O   tau(  13) = (   0.6540840   0.4264971   0.3349355  )
        14           O   tau(  14) = (   0.4610620   0.4374205   0.0258369  )
        15           O   tau(  15) = (   0.0466520   0.1348009   0.2957297  )
        16           O   tau(  16) = (   0.5400580   0.1344987   0.4050679  )
        17           O   tau(  17) = (   0.9523340   0.4395553   0.1462146  )
        18           O   tau(  18) = (   0.1650350   0.4879185   0.0497134  )
        19           O   tau(  19) = (   0.3242430   0.0412092   0.3373427  )
        20           O   tau(  20) = (   0.8958430   0.3173982   0.3573185  )
        21           O   tau(  21) = (   0.6568690   0.3093564   0.0872685  )
        22           O   tau(  22) = (   0.8385610   0.0924455   0.3976702  )
        23           O   tau(  23) = (   0.6777090   0.5263822   0.0966126  )
        24           O   tau(  24) = (   0.1168020   0.2657795   0.0963228  )
        25           O   tau(  25) = (   0.3354730   0.2583472   0.3458601  )

   Crystallographic axes

     site n.     atom                  positions (cryst. coord.)
         1           Na  tau(   1) = (  0.9908320  0.8963260  0.8228480  )
         2           Fe  tau(   2) = (  0.2986640  0.7698650  0.8576180  )
         3           Fe  tau(   3) = (  0.2176140  0.3028600  0.4819110  )
         4           Fe  tau(   4) = (  0.6993130  0.2304250  0.1200200  )
         5           Fe  tau(   5) = (  0.7827270  0.6663060  0.4694400  )
         6           P   tau(   6) = (  0.0964330  0.7009000  0.3095240  )
         7           P   tau(   7) = (  0.3931680  0.2515560  0.9201240  )
         8           P   tau(   8) = (  0.9083370  0.3235170  0.6866860  )
         9           P   tau(   9) = (  0.6077760  0.7497010  0.0347250  )
        10           O   tau(  10) = (  0.1605150  0.7271390  0.5902460  )
        11           O   tau(  11) = (  0.3515630  0.2477860  0.2180880  )
        12           O   tau(  12) = (  0.8284030  0.3310360  0.4159890  )
        13           O   tau(  13) = (  0.6540840  0.7493800  0.7397990  )
        14           O   tau(  14) = (  0.4610620  0.7685730  0.0570680  )
        15           O   tau(  15) = (  0.0466520  0.2368530  0.6532020  )
        16           O   tau(  16) = (  0.5400580  0.2363220  0.8947060  )
        17           O   tau(  17) = (  0.9523340  0.7723240  0.3229560  )
        18           O   tau(  18) = (  0.1650350  0.8573010  0.1098060  )
        19           O   tau(  19) = (  0.3242430  0.0724070  0.7451160  )
        20           O   tau(  20) = (  0.8958430  0.5576870  0.7892380  )
        21           O   tau(  21) = (  0.6568690  0.5435570  0.1927570  )
        22           O   tau(  22) = (  0.8385610  0.1624320  0.8783660  )
        23           O   tau(  23) = (  0.6777090  0.9248840  0.2133960  )
        24           O   tau(  24) = (  0.1168020  0.4669900  0.2127560  )
        25           O   tau(  25) = (  0.3354730  0.4539310  0.7639290  )

     number of k points=   158  Marzari-Vanderbilt smearing, width (Ry)=  0.0073
                       cart. coord. in units 2pi/alat
        k(    1) = (   0.0000000   0.0000000   0.0000000), wk =   0.0031746
        k(    2) = (   0.0000000   0.0000000   0.2454200), wk =   0.0063492
        k(    3) = (   0.0000000   0.0000000   0.4908401), wk =   0.0063492
        k(    4) = (   0.0000000   0.0000000   0.7362601), wk =   0.0063492
        k(    5) = (   0.0000000   0.0000000   0.9816801), wk =   0.0063492
        k(    6) = (   0.0000000   0.2510082   0.0000000), wk =   0.0063492
        k(    7) = (   0.0000000   0.2510082   0.2454200), wk =   0.0063492
        k(    8) = (   0.0000000   0.2510082   0.4908401), wk =   0.0063492
        k(    9) = (   0.0000000   0.2510082   0.7362601), wk =   0.0063492
        k(   10) = (   0.0000000   0.2510082   0.9816801), wk =   0.0063492
        k(   11) = (   0.0000000   0.5020165   0.0000000), wk =   0.0063492
        k(   12) = (   0.0000000   0.5020165   0.2454200), wk =   0.0063492
        k(   13) = (   0.0000000   0.5020165   0.4908401), wk =   0.0063492
        k(   14) = (   0.0000000   0.5020165   0.7362601), wk =   0.0063492
        k(   15) = (   0.0000000   0.5020165   0.9816801), wk =   0.0063492
        k(   16) = (   0.0000000   0.7530247   0.0000000), wk =   0.0063492
        k(   17) = (   0.0000000   0.7530247   0.2454200), wk =   0.0063492
        k(   18) = (   0.0000000   0.7530247   0.4908401), wk =   0.0063492
        k(   19) = (   0.0000000   0.7530247   0.7362601), wk =   0.0063492
        k(   20) = (   0.0000000   0.7530247   0.9816801), wk =   0.0063492
        k(   21) = (   0.2000000   0.0000000   0.0000000), wk =   0.0063492
        k(   22) = (   0.2000000   0.0000000   0.2454200), wk =   0.0063492
        k(   23) = (   0.2000000   0.0000000   0.4908401), wk =   0.0063492
        k(   24) = (   0.2000000   0.0000000   0.7362601), wk =   0.0063492
        k(   25) = (   0.2000000   0.0000000   0.9816801), wk =   0.0063492
        k(   26) = (   0.2000000   0.2510082   0.0000000), wk =   0.0063492
        k(   27) = (   0.2000000   0.2510082   0.2454200), wk =   0.0063492
        k(   28) = (   0.2000000   0.2510082   0.4908401), wk =   0.0063492
        k(   29) = (   0.2000000   0.2510082   0.7362601), wk =   0.0063492
        k(   30) = (   0.2000000   0.2510082   0.9816801), wk =   0.0063492
        k(   31) = (   0.2000000   0.5020165   0.0000000), wk =   0.0063492
        k(   32) = (   0.2000000   0.5020165   0.2454200), wk =   0.0063492
        k(   33) = (   0.2000000   0.5020165   0.4908401), wk =   0.0063492
        k(   34) = (   0.2000000   0.5020165   0.7362601), wk =   0.0063492
        k(   35) = (   0.2000000   0.5020165   0.9816801), wk =   0.0063492
        k(   36) = (   0.2000000   0.7530247   0.0000000), wk =   0.0063492
        k(   37) = (   0.2000000   0.7530247   0.2454200), wk =   0.0063492
        k(   38) = (   0.2000000   0.7530247   0.4908401), wk =   0.0063492
        k(   39) = (   0.2000000   0.7530247   0.7362601), wk =   0.0063492
        k(   40) = (   0.2000000   0.7530247   0.9816801), wk =   0.0063492
        k(   41) = (   0.4000000   0.0000000   0.0000000), wk =   0.0063492
        k(   42) = (   0.4000000   0.0000000   0.2454200), wk =   0.0063492
        k(   43) = (   0.4000000   0.0000000   0.4908401), wk =   0.0063492
        k(   44) = (   0.4000000   0.0000000   0.7362601), wk =   0.0063492
        k(   45) = (   0.4000000   0.0000000   0.9816801), wk =   0.0063492
        k(   46) = (   0.4000000   0.2510082   0.0000000), wk =   0.0063492
        k(   47) = (   0.4000000   0.2510082   0.2454200), wk =   0.0063492
        k(   48) = (   0.4000000   0.2510082   0.4908401), wk =   0.0063492
        k(   49) = (   0.4000000   0.2510082   0.7362601), wk =   0.0063492
        k(   50) = (   0.4000000   0.2510082   0.9816801), wk =   0.0063492
        k(   51) = (   0.4000000   0.5020165   0.0000000), wk =   0.0063492
        k(   52) = (   0.4000000   0.5020165   0.2454200), wk =   0.0063492
        k(   53) = (   0.4000000   0.5020165   0.4908401), wk =   0.0063492
        k(   54) = (   0.4000000   0.5020165   0.7362601), wk =   0.0063492
        k(   55) = (   0.4000000   0.5020165   0.9816801), wk =   0.0063492
        k(   56) = (   0.4000000   0.7530247   0.0000000), wk =   0.0063492
        k(   57) = (   0.4000000   0.7530247   0.2454200), wk =   0.0063492
        k(   58) = (   0.4000000   0.7530247   0.4908401), wk =   0.0063492
        k(   59) = (   0.4000000   0.7530247   0.7362601), wk =   0.0063492
        k(   60) = (   0.4000000   0.7530247   0.9816801), wk =   0.0063492
        k(   61) = (   0.0000000  -0.2510082   0.2454200), wk =   0.0063492
        k(   62) = (   0.0000000  -0.2510082   0.4908401), wk =   0.0063492
        k(   63) = (   0.0000000  -0.2510082   0.7362601), wk =   0.0063492
        k(   64) = (   0.0000000  -0.2510082   0.9816801), wk =   0.0063492
        k(   65) = (   0.0000000  -0.5020165   0.2454200), wk =   0.0063492
        k(   66) = (   0.0000000  -0.5020165   0.4908401), wk =   0.0063492
        k(   67) = (   0.0000000  -0.5020165   0.7362601), wk =   0.0063492
        k(   68) = (   0.0000000  -0.5020165   0.9816801), wk =   0.0063492
        k(   69) = (   0.0000000  -0.7530247   0.2454200), wk =   0.0063492
        k(   70) = (   0.0000000  -0.7530247   0.4908401), wk =   0.0063492
        k(   71) = (   0.0000000  -0.7530247   0.7362601), wk =   0.0063492
        k(   72) = (   0.0000000  -0.7530247   0.9816801), wk =   0.0063492
        k(   73) = (  -0.2000000   0.0000000   0.2454200), wk =   0.0063492
        k(   74) = (  -0.2000000   0.0000000   0.4908401), wk =   0.0063492
        k(   75) = (  -0.2000000   0.0000000   0.7362601), wk =   0.0063492
        k(   76) = (  -0.2000000   0.0000000   0.9816801), wk =   0.0063492
        k(   77) = (  -0.2000000   0.2510082   0.0000000), wk =   0.0063492
        k(   78) = (  -0.2000000  -0.2510082   0.2454200), wk =   0.0063492
        k(   79) = (  -0.2000000   0.2510082  -0.2454200), wk =   0.0063492
        k(   80) = (   0.2000000  -0.2510082  -0.2454200), wk =   0.0063492
        k(   81) = (  -0.2000000  -0.2510082   0.4908401), wk =   0.0063492
        k(   82) = (  -0.2000000   0.2510082  -0.4908401), wk =   0.0063492
        k(   83) = (   0.2000000  -0.2510082  -0.4908401), wk =   0.0063492
        k(   84) = (  -0.2000000  -0.2510082   0.7362601), wk =   0.0063492
        k(   85) = (  -0.2000000   0.2510082  -0.7362601), wk =   0.0063492
        k(   86) = (   0.2000000  -0.2510082  -0.7362601), wk =   0.0063492
        k(   87) = (  -0.2000000  -0.2510082   0.9816801), wk =   0.0063492
        k(   88) = (  -0.2000000   0.2510082  -0.9816801), wk =   0.0063492
        k(   89) = (   0.2000000  -0.2510082  -0.9816801), wk =   0.0063492
        k(   90) = (  -0.2000000   0.5020165   0.0000000), wk =   0.0063492
        k(   91) = (  -0.2000000  -0.5020165   0.2454200), wk =   0.0063492
        k(   92) = (  -0.2000000   0.5020165  -0.2454200), wk =   0.0063492
        k(   93) = (   0.2000000  -0.5020165  -0.2454200), wk =   0.0063492
        k(   94) = (  -0.2000000  -0.5020165   0.4908401), wk =   0.0063492
        k(   95) = (  -0.2000000   0.5020165  -0.4908401), wk =   0.0063492
        k(   96) = (   0.2000000  -0.5020165  -0.4908401), wk =   0.0063492
        k(   97) = (  -0.2000000  -0.5020165   0.7362601), wk =   0.0063492
        k(   98) = (  -0.2000000   0.5020165  -0.7362601), wk =   0.0063492
        k(   99) = (   0.2000000  -0.5020165  -0.7362601), wk =   0.0063492
        k(  100) = (  -0.2000000  -0.5020165   0.9816801), wk =   0.0063492
        k(  101) = (  -0.2000000   0.5020165  -0.9816801), wk =   0.0063492
        k(  102) = (   0.2000000  -0.5020165  -0.9816801), wk =   0.0063492
        k(  103) = (  -0.2000000   0.7530247   0.0000000), wk =   0.0063492
        k(  104) = (  -0.2000000  -0.7530247   0.2454200), wk =   0.0063492
        k(  105) = (  -0.2000000   0.7530247  -0.2454200), wk =   0.0063492
        k(  106) = (   0.2000000  -0.7530247  -0.2454200), wk =   0.0063492
        k(  107) = (  -0.2000000  -0.7530247   0.4908401), wk =   0.0063492
        k(  108) = (  -0.2000000   0.7530247  -0.4908401), wk =   0.0063492
        k(  109) = (   0.2000000  -0.7530247  -0.4908401), wk =   0.0063492
        k(  110) = (  -0.2000000  -0.7530247   0.7362601), wk =   0.0063492
        k(  111) = (  -0.2000000   0.7530247  -0.7362601), wk =   0.0063492
        k(  112) = (   0.2000000  -0.7530247  -0.7362601), wk =   0.0063492
        k(  113) = (  -0.2000000  -0.7530247   0.9816801), wk =   0.0063492
        k(  114) = (  -0.2000000   0.7530247  -0.9816801), wk =   0.0063492
        k(  115) = (   0.2000000  -0.7530247  -0.9816801), wk =   0.0063492
        k(  116) = (  -0.4000000   0.0000000   0.2454200), wk =   0.0063492
        k(  117) = (  -0.4000000   0.0000000   0.4908401), wk =   0.0063492
        k(  118) = (  -0.4000000   0.0000000   0.7362601), wk =   0.0063492
        k(  119) = (  -0.4000000   0.0000000   0.9816801), wk =   0.0063492
        k(  120) = (  -0.4000000   0.2510082   0.0000000), wk =   0.0063492
        k(  121) = (  -0.4000000  -0.2510082   0.2454200), wk =   0.0063492
        k(  122) = (  -0.4000000   0.2510082  -0.2454200), wk =   0.0063492
        k(  123) = (   0.4000000  -0.2510082  -0.2454200), wk =   0.0063492
        k(  124) = (  -0.4000000  -0.2510082   0.4908401), wk =   0.0063492
        k(  125) = (  -0.4000000   0.2510082  -0.4908401), wk =   0.0063492
        k(  126) = (   0.4000000  -0.2510082  -0.4908401), wk =   0.0063492
        k(  127) = (  -0.4000000  -0.2510082   0.7362601), wk =   0.0063492
        k(  128) = (  -0.4000000   0.2510082  -0.7362601), wk =   0.0063492
        k(  129) = (   0.4000000  -0.2510082  -0.7362601), wk =   0.0063492
        k(  130) = (  -0.4000000  -0.2510082   0.9816801), wk =   0.0063492
        k(  131) = (  -0.4000000   0.2510082  -0.9816801), wk =   0.0063492
        k(  132) = (   0.4000000  -0.2510082  -0.9816801), wk =   0.0063492
        k(  133) = (  -0.4000000   0.5020165   0.0000000), wk =   0.0063492
        k(  134) = (  -0.4000000  -0.5020165   0.2454200), wk =   0.0063492
        k(  135) = (  -0.4000000   0.5020165  -0.2454200), wk =   0.0063492
        k(  136) = (   0.4000000  -0.5020165  -0.2454200), wk =   0.0063492
        k(  137) = (  -0.4000000  -0.5020165   0.4908401), wk =   0.0063492
        k(  138) = (  -0.4000000   0.5020165  -0.4908401), wk =   0.0063492
        k(  139) = (   0.4000000  -0.5020165  -0.4908401), wk =   0.0063492
        k(  140) = (  -0.4000000  -0.5020165   0.7362601), wk =   0.0063492
        k(  141) = (  -0.4000000   0.5020165  -0.7362601), wk =   0.0063492
        k(  142) = (   0.4000000  -0.5020165  -0.7362601), wk =   0.0063492
        k(  143) = (  -0.4000000  -0.5020165   0.9816801), wk =   0.0063492
        k(  144) = (  -0.4000000   0.5020165  -0.9816801), wk =   0.0063492
        k(  145) = (   0.4000000  -0.5020165  -0.9816801), wk =   0.0063492
        k(  146) = (  -0.4000000   0.7530247   0.0000000), wk =   0.0063492
        k(  147) = (  -0.4000000  -0.7530247   0.2454200), wk =   0.0063492
        k(  148) = (  -0.4000000   0.7530247  -0.2454200), wk =   0.0063492
        k(  149) = (   0.4000000  -0.7530247  -0.2454200), wk =   0.0063492
        k(  150) = (  -0.4000000  -0.7530247   0.4908401), wk =   0.0063492
        k(  151) = (  -0.4000000   0.7530247  -0.4908401), wk =   0.0063492
        k(  152) = (   0.4000000  -0.7530247  -0.4908401), wk =   0.0063492
        k(  153) = (  -0.4000000  -0.7530247   0.7362601), wk =   0.0063492
        k(  154) = (  -0.4000000   0.7530247  -0.7362601), wk =   0.0063492
        k(  155) = (   0.4000000  -0.7530247  -0.7362601), wk =   0.0063492
        k(  156) = (  -0.4000000  -0.7530247   0.9816801), wk =   0.0063492
        k(  157) = (  -0.4000000   0.7530247  -0.9816801), wk =   0.0063492
        k(  158) = (   0.4000000  -0.7530247  -0.9816801), wk =   0.0063492

                       cryst. coord.
        k(    1) = (   0.0000000   0.0000000   0.0000000), wk =   0.0031746
        k(    2) = (   0.0000000   0.0000000   0.1111111), wk =   0.0063492
        k(    3) = (   0.0000000   0.0000000   0.2222222), wk =   0.0063492
        k(    4) = (   0.0000000   0.0000000   0.3333333), wk =   0.0063492
        k(    5) = (   0.0000000   0.0000000   0.4444444), wk =   0.0063492
        k(    6) = (   0.0000000   0.1428571   0.0000000), wk =   0.0063492
        k(    7) = (   0.0000000   0.1428571   0.1111111), wk =   0.0063492
        k(    8) = (   0.0000000   0.1428571   0.2222222), wk =   0.0063492
        k(    9) = (   0.0000000   0.1428571   0.3333333), wk =   0.0063492
        k(   10) = (   0.0000000   0.1428571   0.4444444), wk =   0.0063492
        k(   11) = (   0.0000000   0.2857143   0.0000000), wk =   0.0063492
        k(   12) = (   0.0000000   0.2857143   0.1111111), wk =   0.0063492
        k(   13) = (   0.0000000   0.2857143   0.2222222), wk =   0.0063492
        k(   14) = (   0.0000000   0.2857143   0.3333333), wk =   0.0063492
        k(   15) = (   0.0000000   0.2857143   0.4444444), wk =   0.0063492
        k(   16) = (   0.0000000   0.4285714   0.0000000), wk =   0.0063492
        k(   17) = (   0.0000000   0.4285714   0.1111111), wk =   0.0063492
        k(   18) = (   0.0000000   0.4285714   0.2222222), wk =   0.0063492
        k(   19) = (   0.0000000   0.4285714   0.3333333), wk =   0.0063492
        k(   20) = (   0.0000000   0.4285714   0.4444444), wk =   0.0063492
        k(   21) = (   0.2000000   0.0000000   0.0000000), wk =   0.0063492
        k(   22) = (   0.2000000   0.0000000   0.1111111), wk =   0.0063492
        k(   23) = (   0.2000000   0.0000000   0.2222222), wk =   0.0063492
        k(   24) = (   0.2000000   0.0000000   0.3333333), wk =   0.0063492
        k(   25) = (   0.2000000   0.0000000   0.4444444), wk =   0.0063492
        k(   26) = (   0.2000000   0.1428571   0.0000000), wk =   0.0063492
        k(   27) = (   0.2000000   0.1428571   0.1111111), wk =   0.0063492
        k(   28) = (   0.2000000   0.1428571   0.2222222), wk =   0.0063492
        k(   29) = (   0.2000000   0.1428571   0.3333333), wk =   0.0063492
        k(   30) = (   0.2000000   0.1428571   0.4444444), wk =   0.0063492
        k(   31) = (   0.2000000   0.2857143   0.0000000), wk =   0.0063492
        k(   32) = (   0.2000000   0.2857143   0.1111111), wk =   0.0063492
        k(   33) = (   0.2000000   0.2857143   0.2222222), wk =   0.0063492
        k(   34) = (   0.2000000   0.2857143   0.3333333), wk =   0.0063492
        k(   35) = (   0.2000000   0.2857143   0.4444444), wk =   0.0063492
        k(   36) = (   0.2000000   0.4285714   0.0000000), wk =   0.0063492
        k(   37) = (   0.2000000   0.4285714   0.1111111), wk =   0.0063492
        k(   38) = (   0.2000000   0.4285714   0.2222222), wk =   0.0063492
        k(   39) = (   0.2000000   0.4285714   0.3333333), wk =   0.0063492
        k(   40) = (   0.2000000   0.4285714   0.4444444), wk =   0.0063492
        k(   41) = (   0.4000000   0.0000000   0.0000000), wk =   0.0063492
        k(   42) = (   0.4000000   0.0000000   0.1111111), wk =   0.0063492
        k(   43) = (   0.4000000   0.0000000   0.2222222), wk =   0.0063492
        k(   44) = (   0.4000000   0.0000000   0.3333333), wk =   0.0063492
        k(   45) = (   0.4000000   0.0000000   0.4444444), wk =   0.0063492
        k(   46) = (   0.4000000   0.1428571   0.0000000), wk =   0.0063492
        k(   47) = (   0.4000000   0.1428571   0.1111111), wk =   0.0063492
        k(   48) = (   0.4000000   0.1428571   0.2222222), wk =   0.0063492
        k(   49) = (   0.4000000   0.1428571   0.3333333), wk =   0.0063492
        k(   50) = (   0.4000000   0.1428571   0.4444444), wk =   0.0063492
        k(   51) = (   0.4000000   0.2857143   0.0000000), wk =   0.0063492
        k(   52) = (   0.4000000   0.2857143   0.1111111), wk =   0.0063492
        k(   53) = (   0.4000000   0.2857143   0.2222222), wk =   0.0063492
        k(   54) = (   0.4000000   0.2857143   0.3333333), wk =   0.0063492
        k(   55) = (   0.4000000   0.2857143   0.4444444), wk =   0.0063492
        k(   56) = (   0.4000000   0.4285714   0.0000000), wk =   0.0063492
        k(   57) = (   0.4000000   0.4285714   0.1111111), wk =   0.0063492
        k(   58) = (   0.4000000   0.4285714   0.2222222), wk =   0.0063492
        k(   59) = (   0.4000000   0.4285714   0.3333333), wk =   0.0063492
        k(   60) = (   0.4000000   0.4285714   0.4444444), wk =   0.0063492
        k(   61) = (   0.0000000  -0.1428571   0.1111111), wk =   0.0063492
        k(   62) = (   0.0000000  -0.1428571   0.2222222), wk =   0.0063492
        k(   63) = (   0.0000000  -0.1428571   0.3333333), wk =   0.0063492
        k(   64) = (   0.0000000  -0.1428571   0.4444444), wk =   0.0063492
        k(   65) = (   0.0000000  -0.2857143   0.1111111), wk =   0.0063492
        k(   66) = (   0.0000000  -0.2857143   0.2222222), wk =   0.0063492
        k(   67) = (   0.0000000  -0.2857143   0.3333333), wk =   0.0063492
        k(   68) = (   0.0000000  -0.2857143   0.4444444), wk =   0.0063492
        k(   69) = (   0.0000000  -0.4285714   0.1111111), wk =   0.0063492
        k(   70) = (   0.0000000  -0.4285714   0.2222222), wk =   0.0063492
        k(   71) = (   0.0000000  -0.4285714   0.3333333), wk =   0.0063492
        k(   72) = (   0.0000000  -0.4285714   0.4444444), wk =   0.0063492
        k(   73) = (  -0.2000000   0.0000000   0.1111111), wk =   0.0063492
        k(   74) = (  -0.2000000   0.0000000   0.2222222), wk =   0.0063492
        k(   75) = (  -0.2000000   0.0000000   0.3333333), wk =   0.0063492
        k(   76) = (  -0.2000000   0.0000000   0.4444444), wk =   0.0063492
        k(   77) = (  -0.2000000   0.1428571   0.0000000), wk =   0.0063492
        k(   78) = (  -0.2000000  -0.1428571   0.1111111), wk =   0.0063492
        k(   79) = (  -0.2000000   0.1428571  -0.1111111), wk =   0.0063492
        k(   80) = (   0.2000000  -0.1428571  -0.1111111), wk =   0.0063492
        k(   81) = (  -0.2000000  -0.1428571   0.2222222), wk =   0.0063492
        k(   82) = (  -0.2000000   0.1428571  -0.2222222), wk =   0.0063492
        k(   83) = (   0.2000000  -0.1428571  -0.2222222), wk =   0.0063492
        k(   84) = (  -0.2000000  -0.1428571   0.3333333), wk =   0.0063492
        k(   85) = (  -0.2000000   0.1428571  -0.3333333), wk =   0.0063492
        k(   86) = (   0.2000000  -0.1428571  -0.3333333), wk =   0.0063492
        k(   87) = (  -0.2000000  -0.1428571   0.4444444), wk =   0.0063492
        k(   88) = (  -0.2000000   0.1428571  -0.4444444), wk =   0.0063492
        k(   89) = (   0.2000000  -0.1428571  -0.4444444), wk =   0.0063492
        k(   90) = (  -0.2000000   0.2857143   0.0000000), wk =   0.0063492
        k(   91) = (  -0.2000000  -0.2857143   0.1111111), wk =   0.0063492
        k(   92) = (  -0.2000000   0.2857143  -0.1111111), wk =   0.0063492
        k(   93) = (   0.2000000  -0.2857143  -0.1111111), wk =   0.0063492
        k(   94) = (  -0.2000000  -0.2857143   0.2222222), wk =   0.0063492
        k(   95) = (  -0.2000000   0.2857143  -0.2222222), wk =   0.0063492
        k(   96) = (   0.2000000  -0.2857143  -0.2222222), wk =   0.0063492
        k(   97) = (  -0.2000000  -0.2857143   0.3333333), wk =   0.0063492
        k(   98) = (  -0.2000000   0.2857143  -0.3333333), wk =   0.0063492
        k(   99) = (   0.2000000  -0.2857143  -0.3333333), wk =   0.0063492
        k(  100) = (  -0.2000000  -0.2857143   0.4444444), wk =   0.0063492
        k(  101) = (  -0.2000000   0.2857143  -0.4444444), wk =   0.0063492
        k(  102) = (   0.2000000  -0.2857143  -0.4444444), wk =   0.0063492
        k(  103) = (  -0.2000000   0.4285714   0.0000000), wk =   0.0063492
        k(  104) = (  -0.2000000  -0.4285714   0.1111111), wk =   0.0063492
        k(  105) = (  -0.2000000   0.4285714  -0.1111111), wk =   0.0063492
        k(  106) = (   0.2000000  -0.4285714  -0.1111111), wk =   0.0063492
        k(  107) = (  -0.2000000  -0.4285714   0.2222222), wk =   0.0063492
        k(  108) = (  -0.2000000   0.4285714  -0.2222222), wk =   0.0063492
        k(  109) = (   0.2000000  -0.4285714  -0.2222222), wk =   0.0063492
        k(  110) = (  -0.2000000  -0.4285714   0.3333333), wk =   0.0063492
        k(  111) = (  -0.2000000   0.4285714  -0.3333333), wk =   0.0063492
        k(  112) = (   0.2000000  -0.4285714  -0.3333333), wk =   0.0063492
        k(  113) = (  -0.2000000  -0.4285714   0.4444444), wk =   0.0063492
        k(  114) = (  -0.2000000   0.4285714  -0.4444444), wk =   0.0063492
        k(  115) = (   0.2000000  -0.4285714  -0.4444444), wk =   0.0063492
        k(  116) = (  -0.4000000   0.0000000   0.1111111), wk =   0.0063492
        k(  117) = (  -0.4000000   0.0000000   0.2222222), wk =   0.0063492
        k(  118) = (  -0.4000000   0.0000000   0.3333333), wk =   0.0063492
        k(  119) = (  -0.4000000   0.0000000   0.4444444), wk =   0.0063492
        k(  120) = (  -0.4000000   0.1428571   0.0000000), wk =   0.0063492
        k(  121) = (  -0.4000000  -0.1428571   0.1111111), wk =   0.0063492
        k(  122) = (  -0.4000000   0.1428571  -0.1111111), wk =   0.0063492
        k(  123) = (   0.4000000  -0.1428571  -0.1111111), wk =   0.0063492
        k(  124) = (  -0.4000000  -0.1428571   0.2222222), wk =   0.0063492
        k(  125) = (  -0.4000000   0.1428571  -0.2222222), wk =   0.0063492
        k(  126) = (   0.4000000  -0.1428571  -0.2222222), wk =   0.0063492
        k(  127) = (  -0.4000000  -0.1428571   0.3333333), wk =   0.0063492
        k(  128) = (  -0.4000000   0.1428571  -0.3333333), wk =   0.0063492
        k(  129) = (   0.4000000  -0.1428571  -0.3333333), wk =   0.0063492
        k(  130) = (  -0.4000000  -0.1428571   0.4444444), wk =   0.0063492
        k(  131) = (  -0.4000000   0.1428571  -0.4444444), wk =   0.0063492
        k(  132) = (   0.4000000  -0.1428571  -0.4444444), wk =   0.0063492
        k(  133) = (  -0.4000000   0.2857143   0.0000000), wk =   0.0063492
        k(  134) = (  -0.4000000  -0.2857143   0.1111111), wk =   0.0063492
        k(  135) = (  -0.4000000   0.2857143  -0.1111111), wk =   0.0063492
        k(  136) = (   0.4000000  -0.2857143  -0.1111111), wk =   0.0063492
        k(  137) = (  -0.4000000  -0.2857143   0.2222222), wk =   0.0063492
        k(  138) = (  -0.4000000   0.2857143  -0.2222222), wk =   0.0063492
        k(  139) = (   0.4000000  -0.2857143  -0.2222222), wk =   0.0063492
        k(  140) = (  -0.4000000  -0.2857143   0.3333333), wk =   0.0063492
        k(  141) = (  -0.4000000   0.2857143  -0.3333333), wk =   0.0063492
        k(  142) = (   0.4000000  -0.2857143  -0.3333333), wk =   0.0063492
        k(  143) = (  -0.4000000  -0.2857143   0.4444444), wk =   0.0063492
        k(  144) = (  -0.4000000   0.2857143  -0.4444444), wk =   0.0063492
        k(  145) = (   0.4000000  -0.2857143  -0.4444444), wk =   0.0063492
        k(  146) = (  -0.4000000   0.4285714   0.0000000), wk =   0.0063492
        k(  147) = (  -0.4000000  -0.4285714   0.1111111), wk =   0.0063492
        k(  148) = (  -0.4000000   0.4285714  -0.1111111), wk =   0.0063492
        k(  149) = (   0.4000000  -0.4285714  -0.1111111), wk =   0.0063492
        k(  150) = (  -0.4000000  -0.4285714   0.2222222), wk =   0.0063492
        k(  151) = (  -0.4000000   0.4285714  -0.2222222), wk =   0.0063492
        k(  152) = (   0.4000000  -0.4285714  -0.2222222), wk =   0.0063492
        k(  153) = (  -0.4000000  -0.4285714   0.3333333), wk =   0.0063492
        k(  154) = (  -0.4000000   0.4285714  -0.3333333), wk =   0.0063492
        k(  155) = (   0.4000000  -0.4285714  -0.3333333), wk =   0.0063492
        k(  156) = (  -0.4000000  -0.4285714   0.4444444), wk =   0.0063492
        k(  157) = (  -0.4000000   0.4285714  -0.4444444), wk =   0.0063492
        k(  158) = (   0.4000000  -0.4285714  -0.4444444), wk =   0.0063492

     Dense  grid:  1359665 G-vectors     FFT dimensions: ( 216, 125, 100)

     Smooth grid:   306383 G-vectors     FFT dimensions: ( 135,  75,  60)

     Dynamical RAM for                 wfc:       5.55 MB

     Dynamical RAM for     wfc (w. buffer):    1760.14 MB

     Dynamical RAM for           str. fact:       6.92 MB

     Dynamical RAM for           local pot:       0.00 MB

     Dynamical RAM for          nlocal pot:      13.64 MB

     Dynamical RAM for                qrad:      10.54 MB

     Dynamical RAM for          rho,v,vnew:      21.50 MB

     Dynamical RAM for               rhoin:       7.17 MB

     Dynamical RAM for            rho*nmix:      55.33 MB

     Dynamical RAM for           G-vectors:       6.68 MB

     Dynamical RAM for          h,s,v(r/c):       2.38 MB

     Dynamical RAM for          <psi|beta>:       0.49 MB

     Dynamical RAM for                 psi:      11.10 MB

     Dynamical RAM for                hpsi:      11.10 MB

     Dynamical RAM for                spsi:      11.10 MB

     Dynamical RAM for      wfcinit/wfcrot:      13.78 MB

     Dynamical RAM for           addusdens:     350.97 MB

     Dynamical RAM for          addusforce:     402.96 MB

     Dynamical RAM for         addusstress:     350.10 MB

     Estimated static dynamical RAM per process >       1.86 GB

     Estimated max dynamical RAM per process >       2.25 GB

     Estimated total dynamical RAM >      27.01 GB

     Check: negative core charge=   -0.000003
     Generating pointlists ...
     new r_m :   0.0744 (alat units)  1.5353 (a.u.) for type    1
     new r_m :   0.0889 (alat units)  1.8347 (a.u.) for type    2
     new r_m :   0.0582 (alat units)  1.2025 (a.u.) for type    3
     new r_m :   0.0582 (alat units)  1.2025 (a.u.) for type    4

     Initial potential from superposition of free atoms

     starting charge  188.99132, renormalised to  189.00000
     Starting wfcs are  137 randomized atomic wfcs
     Checking if some PAW data can be deallocated... 
       PAW data deallocated on   10 nodes for type:  1
       PAW data deallocated on    4 nodes for type:  3

     total cpu time spent up to now is     2534.2 secs

     Self-consistent Calculation

     iteration #  1     ecut=   100.00 Ry     beta= 0.40
     Davidson diagonalization with overlap
     ethr =  1.00E-02,  avg # of iterations =  3.0

     negative rho (up, down):  0.000E+00 1.231E-04

     total cpu time spent up to now is     9770.3 secs

     total energy              =   -2123.77991765 Ry
     estimated scf accuracy    <       7.06309052 Ry

     total magnetization       =    19.00 Bohr mag/cell
     absolute magnetization    =    19.00 Bohr mag/cell

     iteration #  2     ecut=   100.00 Ry     beta= 0.40
     Davidson diagonalization with overlap
     ethr =  3.74E-03,  avg # of iterations =  2.0

     negative rho (up, down):  0.000E+00 8.118E-05

     total cpu time spent up to now is    16653.9 secs

     total energy              =   -2121.01252053 Ry
     estimated scf accuracy    <      34.47071175 Ry

     total magnetization       =     7.83 Bohr mag/cell
     absolute magnetization    =     9.48 Bohr mag/cell

     iteration #  3     ecut=   100.00 Ry     beta= 0.40
     Davidson diagonalization with overlap
     ethr =  3.74E-03,  avg # of iterations =  2.3

     negative rho (up, down):  0.000E+00 6.282E-05

     total cpu time spent up to now is    22378.3 secs

     total energy              =   -2123.52705393 Ry
     estimated scf accuracy    <      56.66902157 Ry

     total magnetization       =     5.00 Bohr mag/cell
     absolute magnetization    =     7.33 Bohr mag/cell

     iteration #  4     ecut=   100.00 Ry     beta= 0.40
     Davidson diagonalization with overlap
     ethr =  3.74E-03,  avg # of iterations =  2.0

     negative rho (up, down):  0.000E+00 7.340E-05

     total cpu time spent up to now is    27952.8 secs

     total energy              =   -2125.03022827 Ry
     estimated scf accuracy    <      20.80863174 Ry

     total magnetization       =    13.00 Bohr mag/cell
     absolute magnetization    =    13.27 Bohr mag/cell

     iteration #  5     ecut=   100.00 Ry     beta= 0.40
     Davidson diagonalization with overlap
     ethr =  3.74E-03,  avg # of iterations =  1.5

     negative rho (up, down):  0.000E+00 9.397E-05

     total cpu time spent up to now is    33335.5 secs

     total energy              =   -2125.40393840 Ry
     estimated scf accuracy    <       9.21496693 Ry

     total magnetization       =    15.02 Bohr mag/cell
     absolute magnetization    =    15.23 Bohr mag/cell

     iteration #  6     ecut=   100.00 Ry     beta= 0.40
     Davidson diagonalization with overlap
     ethr =  3.74E-03,  avg # of iterations =  1.0

     negative rho (up, down):  0.000E+00 1.284E-04

     total cpu time spent up to now is    38693.7 secs

     total energy              =   -2125.64100773 Ry
     estimated scf accuracy    <       9.55119479 Ry

     total magnetization       =    15.07 Bohr mag/cell
     absolute magnetization    =    15.31 Bohr mag/cell

     iteration #  7     ecut=   100.00 Ry     beta= 0.40
     Davidson diagonalization with overlap
     ethr =  3.74E-03,  avg # of iterations =  1.0

     negative rho (up, down):  0.000E+00 2.467E-04

     total cpu time spent up to now is    44024.4 secs

     total energy              =   -2126.01381783 Ry
     estimated scf accuracy    <       1.20318499 Ry

     total magnetization       =    19.06 Bohr mag/cell
     absolute magnetization    =    19.06 Bohr mag/cell

     iteration #  8     ecut=   100.00 Ry     beta= 0.40
     Davidson diagonalization with overlap
     ethr =  6.37E-04,  avg # of iterations =  1.0

     negative rho (up, down):  0.000E+00 4.524E-04

     total cpu time spent up to now is    49365.4 secs

     total energy              =   -2125.98205441 Ry
     estimated scf accuracy    <       0.58710557 Ry

     total magnetization       =    19.00 Bohr mag/cell
     absolute magnetization    =    19.00 Bohr mag/cell

     iteration #  9     ecut=   100.00 Ry     beta= 0.40
     Davidson diagonalization with overlap
     ethr =  3.11E-04,  avg # of iterations =  2.2

     negative rho (up, down):  0.000E+00 5.187E-04

     total cpu time spent up to now is    54946.6 secs

     total energy              =   -2126.01313130 Ry
     estimated scf accuracy    <       0.21425263 Ry

     total magnetization       =    19.00 Bohr mag/cell
     absolute magnetization    =    19.01 Bohr mag/cell

     iteration # 10     ecut=   100.00 Ry     beta= 0.40
     Davidson diagonalization with overlap
     c_bands:  1 eigenvalues not converged
     c_bands:  2 eigenvalues not converged
     ethr =  1.13E-04,  avg # of iterations =  5.9

     negative rho (up, down):  0.000E+00 5.265E-04

     total cpu time spent up to now is    61072.0 secs

     total energy              =   -2126.01533146 Ry
     estimated scf accuracy    <       0.20612797 Ry

     total magnetization       =    19.00 Bohr mag/cell
     absolute magnetization    =    19.01 Bohr mag/cell

     iteration # 11     ecut=   100.00 Ry     beta= 0.40
     Davidson diagonalization with overlap
     ethr =  1.09E-04,  avg # of iterations =  1.1

     negative rho (up, down):  0.000E+00 7.510E-04

     total cpu time spent up to now is    66450.4 secs

     total energy              =   -2126.00910218 Ry
     estimated scf accuracy    <       0.12635526 Ry

     total magnetization       =    19.00 Bohr mag/cell
     absolute magnetization    =    19.01 Bohr mag/cell

     iteration # 12     ecut=   100.00 Ry     beta= 0.40
     Davidson diagonalization with overlap
     c_bands:  1 eigenvalues not converged
     c_bands:  1 eigenvalues not converged
     c_bands:  1 eigenvalues not converged
     c_bands:  1 eigenvalues not converged
     c_bands:  2 eigenvalues not converged
     c_bands:  1 eigenvalues not converged
     c_bands:  2 eigenvalues not converged
     ethr =  6.69E-05,  avg # of iterations =  6.0

     negative rho (up, down):  0.000E+00 8.817E-04

     total cpu time spent up to now is    72575.7 secs

     total energy              =   -2126.01273462 Ry
     estimated scf accuracy    <       0.32400047 Ry

     total magnetization       =    19.00 Bohr mag/cell
     absolute magnetization    =    19.03 Bohr mag/cell

     iteration # 13     ecut=   100.00 Ry     beta= 0.40
     Davidson diagonalization with overlap
     c_bands:  1 eigenvalues not converged
     c_bands:  1 eigenvalues not converged
     c_bands:  1 eigenvalues not converged
     c_bands:  1 eigenvalues not converged
     c_bands:  1 eigenvalues not converged
     ethr =  6.69E-05,  avg # of iterations =  2.7

     negative rho (up, down):  0.000E+00 8.779E-04

     total cpu time spent up to now is    78188.3 secs

     total energy              =   -2126.02203116 Ry
     estimated scf accuracy    <       0.19018863 Ry

     total magnetization       =    19.00 Bohr mag/cell
     absolute magnetization    =    19.03 Bohr mag/cell

     iteration # 14     ecut=   100.00 Ry     beta= 0.40
     Davidson diagonalization with overlap
     ethr =  6.69E-05,  avg # of iterations =  1.0

     negative rho (up, down):  0.000E+00 9.139E-04

     total cpu time spent up to now is    83530.9 secs

     total energy              =   -2126.01982638 Ry
     estimated scf accuracy    <       0.14568113 Ry

     total magnetization       =    19.00 Bohr mag/cell
     absolute magnetization    =    19.04 Bohr mag/cell

     iteration # 15     ecut=   100.00 Ry     beta= 0.40
     Davidson diagonalization with overlap
     ethr =  6.69E-05,  avg # of iterations =  1.0

     negative rho (up, down):  0.000E+00 9.082E-04

     total cpu time spent up to now is    88892.7 secs

     total energy              =   -2126.02225891 Ry
     estimated scf accuracy    <       0.01369433 Ry

     total magnetization       =    19.00 Bohr mag/cell
     absolute magnetization    =    19.04 Bohr mag/cell

     iteration # 16     ecut=   100.00 Ry     beta= 0.40
     Davidson diagonalization with overlap
     c_bands:  1 eigenvalues not converged
     c_bands:  1 eigenvalues not converged
     c_bands:  1 eigenvalues not converged
     c_bands:  1 eigenvalues not converged
     c_bands:  1 eigenvalues not converged
     c_bands:  1 eigenvalues not converged
     c_bands:  1 eigenvalues not converged
     c_bands:  1 eigenvalues not converged
     c_bands:  1 eigenvalues not converged
     c_bands:  1 eigenvalues not converged
     c_bands:  1 eigenvalues not converged
     ethr =  7.25E-06,  avg # of iterations = 13.1

     negative rho (up, down):  0.000E+00 9.046E-04

     total cpu time spent up to now is    96633.4 secs

     total energy              =   -2126.02310144 Ry
     estimated scf accuracy    <       0.02190462 Ry

     total magnetization       =    19.00 Bohr mag/cell
     absolute magnetization    =    19.04 Bohr mag/cell

     iteration # 17     ecut=   100.00 Ry     beta= 0.40
     Davidson diagonalization with overlap
     ethr =  7.25E-06,  avg # of iterations =  1.0

     negative rho (up, down):  0.000E+00 8.989E-04

     total cpu time spent up to now is   101973.2 secs

     total energy              =   -2126.02305945 Ry
     estimated scf accuracy    <       0.02809212 Ry

     total magnetization       =    19.00 Bohr mag/cell
     absolute magnetization    =    19.04 Bohr mag/cell

     iteration # 18     ecut=   100.00 Ry     beta= 0.40
     Davidson diagonalization with overlap
     ethr =  7.25E-06,  avg # of iterations =  1.0

     negative rho (up, down):  0.000E+00 8.927E-04

     total cpu time spent up to now is   107319.8 secs

     total energy              =   -2126.02258127 Ry
     estimated scf accuracy    <       0.01866940 Ry

     total magnetization       =    19.00 Bohr mag/cell
     absolute magnetization    =    19.04 Bohr mag/cell

     iteration # 19     ecut=   100.00 Ry     beta= 0.40
     Davidson diagonalization with overlap
     ethr =  7.25E-06,  avg # of iterations =  1.0

     negative rho (up, down):  0.000E+00 8.902E-04

     total cpu time spent up to now is   112678.6 secs

     total energy              =   -2126.02279117 Ry
     estimated scf accuracy    <       0.00472574 Ry

     total magnetization       =    19.00 Bohr mag/cell
     absolute magnetization    =    19.05 Bohr mag/cell

     iteration # 20     ecut=   100.00 Ry     beta= 0.40
     Davidson diagonalization with overlap
     ethr =  2.50E-06,  avg # of iterations =  1.2

     negative rho (up, down):  0.000E+00 8.855E-04

     total cpu time spent up to now is   117963.9 secs

     total energy              =   -2126.02279598 Ry
     estimated scf accuracy    <       0.00294549 Ry

     total magnetization       =    19.00 Bohr mag/cell
     absolute magnetization    =    19.05 Bohr mag/cell

     iteration # 21     ecut=   100.00 Ry     beta= 0.40
     Davidson diagonalization with overlap
     ethr =  1.56E-06,  avg # of iterations =  1.2

     negative rho (up, down):  0.000E+00 8.816E-04

     total cpu time spent up to now is   123336.5 secs

     total energy              =   -2126.02283900 Ry
     estimated scf accuracy    <       0.00070324 Ry

     total magnetization       =    19.00 Bohr mag/cell
     absolute magnetization    =    19.05 Bohr mag/cell

     iteration # 22     ecut=   100.00 Ry     beta= 0.40
     Davidson diagonalization with overlap
     ethr =  3.72E-07,  avg # of iterations =  1.7

     negative rho (up, down):  0.000E+00 8.807E-04

     total cpu time spent up to now is   128822.9 secs

     total energy              =   -2126.02286749 Ry
     estimated scf accuracy    <       0.00011627 Ry

     total magnetization       =    19.00 Bohr mag/cell
     absolute magnetization    =    19.05 Bohr mag/cell

     iteration # 23     ecut=   100.00 Ry     beta= 0.40
     Davidson diagonalization with overlap
     ethr =  6.15E-08,  avg # of iterations =  4.8

     negative rho (up, down):  0.000E+00 8.800E-04

     total cpu time spent up to now is   136211.2 secs

     total energy              =   -2126.02290419 Ry
     estimated scf accuracy    <       0.00001087 Ry

     total magnetization       =    19.00 Bohr mag/cell
     absolute magnetization    =    19.05 Bohr mag/cell

     iteration # 24     ecut=   100.00 Ry     beta= 0.40
     Davidson diagonalization with overlap
     ethr =  5.75E-09,  avg # of iterations =  3.7

     negative rho (up, down):  0.000E+00 8.793E-04

     total cpu time spent up to now is   144064.1 secs

     total energy              =   -2126.02290873 Ry
     estimated scf accuracy    <       0.00000759 Ry

     total magnetization       =    19.00 Bohr mag/cell
     absolute magnetization    =    19.05 Bohr mag/cell

     iteration # 25     ecut=   100.00 Ry     beta= 0.40
     Davidson diagonalization with overlap
     ethr =  4.02E-09,  avg # of iterations =  2.0

     negative rho (up, down):  0.000E+00 8.791E-04

     total cpu time spent up to now is   149567.9 secs

     total energy              =   -2126.02290961 Ry
     estimated scf accuracy    <       0.00000717 Ry

     total magnetization       =    19.00 Bohr mag/cell
     absolute magnetization    =    19.05 Bohr mag/cell

     iteration # 26     ecut=   100.00 Ry     beta= 0.40
     Davidson diagonalization with overlap
     ethr =  3.79E-09,  avg # of iterations =  1.0

     negative rho (up, down):  0.000E+00 8.789E-04

     total cpu time spent up to now is   154903.6 secs

     total energy              =   -2126.02291006 Ry
     estimated scf accuracy    <       0.00000121 Ry

     total magnetization       =    19.00 Bohr mag/cell
     absolute magnetization    =    19.05 Bohr mag/cell

     iteration # 27     ecut=   100.00 Ry     beta= 0.40
     Davidson diagonalization with overlap
     ethr =  6.38E-10,  avg # of iterations =  2.5

     negative rho (up, down):  0.000E+00 8.788E-04

     total cpu time spent up to now is   161021.0 secs

     total energy              =   -2126.02291027 Ry
     estimated scf accuracy    <       0.00000169 Ry

     total magnetization       =    19.00 Bohr mag/cell
     absolute magnetization    =    19.05 Bohr mag/cell

     iteration # 28     ecut=   100.00 Ry     beta= 0.40
     Davidson diagonalization with overlap
     ethr =  6.38E-10,  avg # of iterations =  1.0

     negative rho (up, down):  0.000E+00 8.787E-04

     total cpu time spent up to now is   166371.2 secs

     total energy              =   -2126.02291033 Ry
     estimated scf accuracy    <       0.00000048 Ry

     total magnetization       =    19.00 Bohr mag/cell
     absolute magnetization    =    19.05 Bohr mag/cell

     iteration # 29     ecut=   100.00 Ry     beta= 0.40
     Davidson diagonalization with overlap
     ethr =  2.52E-10,  avg # of iterations =  2.0

     negative rho (up, down):  0.000E+00 8.786E-04

     total cpu time spent up to now is   172012.7 secs

     total energy              =   -2126.02291039 Ry
     estimated scf accuracy    <       0.00000056 Ry

     total magnetization       =    19.00 Bohr mag/cell
     absolute magnetization    =    19.05 Bohr mag/cell

     iteration # 30     ecut=   100.00 Ry     beta= 0.40
     Davidson diagonalization with overlap
     ethr =  2.52E-10,  avg # of iterations =  1.0

     negative rho (up, down):  0.000E+00 8.786E-04

     total cpu time spent up to now is   177367.3 secs

     total energy              =   -2126.02291041 Ry
     estimated scf accuracy    <       0.00000006 Ry

     total magnetization       =    19.00 Bohr mag/cell
     absolute magnetization    =    19.05 Bohr mag/cell

     iteration # 31     ecut=   100.00 Ry     beta= 0.40
     Davidson diagonalization with overlap
     ethr =  3.29E-11,  avg # of iterations =  3.0

     negative rho (up, down):  0.000E+00 8.786E-04

     total cpu time spent up to now is   183977.5 secs

     total energy              =   -2126.02291043 Ry
     estimated scf accuracy    <       0.00000001 Ry

     total magnetization       =    19.00 Bohr mag/cell
     absolute magnetization    =    19.05 Bohr mag/cell

     iteration # 32     ecut=   100.00 Ry     beta= 0.40
     Davidson diagonalization with overlap
     ethr =  6.72E-12,  avg # of iterations =  2.5

     negative rho (up, down):  0.000E+00 8.786E-04

     total cpu time spent up to now is   189875.1 secs

     total energy              =   -2126.02291043 Ry
     estimated scf accuracy    <          4.0E-09 Ry

     total magnetization       =    19.00 Bohr mag/cell
     absolute magnetization    =    19.05 Bohr mag/cell

     iteration # 33     ecut=   100.00 Ry     beta= 0.40
     Davidson diagonalization with overlap
     ethr =  2.09E-12,  avg # of iterations =  2.4

     negative rho (up, down):  0.000E+00 8.786E-04

     total cpu time spent up to now is   195994.5 secs

     total energy              =   -2126.02291043 Ry
     estimated scf accuracy    <          5.0E-09 Ry

     total magnetization       =    19.00 Bohr mag/cell
     absolute magnetization    =    19.05 Bohr mag/cell

     iteration # 34     ecut=   100.00 Ry     beta= 0.40
     Davidson diagonalization with overlap
     ethr =  2.09E-12,  avg # of iterations =  1.7

     negative rho (up, down):  0.000E+00 8.786E-04

     total cpu time spent up to now is   201526.4 secs

     total energy              =   -2126.02291043 Ry
     estimated scf accuracy    <          2.0E-09 Ry

     total magnetization       =    19.00 Bohr mag/cell
     absolute magnetization    =    19.05 Bohr mag/cell

     iteration # 35     ecut=   100.00 Ry     beta= 0.40
     Davidson diagonalization with overlap
     ethr =  1.08E-12,  avg # of iterations =  1.5

     negative rho (up, down):  0.000E+00 8.786E-04

     total cpu time spent up to now is   207010.7 secs

     total energy              =   -2126.02291043 Ry
     estimated scf accuracy    <          3.7E-10 Ry

     total magnetization       =    19.00 Bohr mag/cell
     absolute magnetization    =    19.05 Bohr mag/cell

     iteration # 36     ecut=   100.00 Ry     beta= 0.40
     Davidson diagonalization with overlap
     ethr =  1.98E-13,  avg # of iterations =  4.1

     negative rho (up, down):  0.000E+00 8.786E-04

     Magnetic moment per site:
     atom:    1    charge:    7.9700    magn:    0.0015    constr:    0.0000
     atom:    2    charge:   12.9766    magn:    3.6974    constr:    0.0000
     atom:    3    charge:   12.9982    magn:    3.6105    constr:    0.0000
     atom:    4    charge:   12.9906    magn:    3.6525    constr:    0.0000
     atom:    5    charge:   12.9865    magn:    3.6559    constr:    0.0000
     atom:    6    charge:    0.8452    magn:    0.0106    constr:    0.0000
     atom:    7    charge:    0.8304    magn:    0.0114    constr:    0.0000
     atom:    8    charge:    0.8408    magn:    0.0089    constr:    0.0000
     atom:    9    charge:    0.8317    magn:    0.0114    constr:    0.0000
     atom:   10    charge:    4.2749    magn:    0.1159    constr:    0.0000
     atom:   11    charge:    4.2685    magn:    0.1076    constr:    0.0000
     atom:   12    charge:    4.2475    magn:    0.1680    constr:    0.0000
     atom:   13    charge:    4.2644    magn:    0.1094    constr:    0.0000
     atom:   14    charge:    4.2191    magn:    0.1321    constr:    0.0000
     atom:   15    charge:    4.2262    magn:    0.0906    constr:    0.0000
     atom:   16    charge:    4.2144    magn:    0.1242    constr:    0.0000
     atom:   17    charge:    4.2135    magn:    0.1081    constr:    0.0000
     atom:   18    charge:    4.2614    magn:    0.1295    constr:    0.0000
     atom:   19    charge:    4.2566    magn:    0.1466    constr:    0.0000
     atom:   20    charge:    4.2666    magn:    0.1102    constr:    0.0000
     atom:   21    charge:    4.2692    magn:    0.1547    constr:    0.0000
     atom:   22    charge:    4.2637    magn:    0.1224    constr:    0.0000
     atom:   23    charge:    4.2539    magn:    0.1443    constr:    0.0000
     atom:   24    charge:    4.2647    magn:    0.1107    constr:    0.0000
     atom:   25    charge:    4.2549    magn:    0.1478    constr:    0.0000

     total cpu time spent up to now is   213975.8 secs

     End of self-consistent calculation

 ------ SPIN UP ------------


          k = 0.0000 0.0000 0.0000 ( 38253 PWs)   bands (ev):

   -85.9179 -85.8962 -85.7342 -85.5297 -52.0215 -51.9862 -51.9691 -51.8774
   -51.8703 -51.8246 -51.8044 -51.7439 -51.6662 -51.5519 -51.5195 -51.3254
   -44.9089 -16.9766 -16.8927 -16.8707 -16.5764 -16.3644 -16.3303 -16.0940
   -14.2770 -14.1375 -14.1028 -14.0389 -14.0161 -13.8990 -13.8390 -13.7871
   -13.6811 -13.5898 -13.5036 -13.4839  -4.8460  -4.4677  -4.0507  -3.9311
    -2.7196  -2.6257  -2.2298  -2.1749  -1.8990  -1.7656  -1.6662  -1.5947
    -1.4863  -1.4530  -1.3574  -1.2512  -0.6784  -0.5968  -0.3398  -0.1706
    -0.0955  -0.0527   0.1006   0.1729   0.2273   0.2558   0.2620   0.4043
     0.6385   0.8582   0.9218   0.9632   1.1021   1.1892   1.2625   1.4380
     1.4780   1.5389   1.5997   1.6086   1.7140   1.7990   1.8706   1.9803
     2.0307   2.1755   2.2211   2.3083   2.3934   2.4131   2.5809   2.6815
     2.8149   2.8878   2.9966   3.0775   3.1206   3.2068   3.3116   3.3316
     3.4156   3.4320   3.5947   3.6600   3.6873   3.7586   4.0231   4.2458
     8.1050  10.0252  10.4654  10.7522  11.2323  11.9552  12.3354  12.3843
    12.4534  12.4885

     occupation numbers 
     1.0000   1.0000   1.0000   1.0000   1.0000   1.0000   1.0000   1.0000
     1.0000   1.0000   1.0000   1.0000   1.0000   1.0000   1.0000   1.0000
     1.0000   1.0000   1.0000   1.0000   1.0000   1.0000   1.0000   1.0000
     1.0000   1.0000   1.0000   1.0000   1.0000   1.0000   1.0000   1.0000
     1.0000   1.0000   1.0000   1.0000   1.0000   1.0000   1.0000   1.0000
     1.0000   1.0000   1.0000   1.0000   1.0000   1.0000   1.0000   1.0000
     1.0000   1.0000   1.0000   1.0000   1.0000   1.0000   1.0000   1.0000
     1.0000   1.0000   1.0000   1.0000   1.0000   1.0000   1.0000   1.0000
     1.0000   1.0000   1.0000   1.0000   1.0000   1.0000   1.0000   1.0000
     1.0000   1.0000   1.0000   1.0000   1.0000   1.0000   1.0000   1.0000
     1.0000   1.0000   1.0000   1.0000   1.0000   1.0000   1.0000   1.0000
     1.0000   1.0000   1.0000   1.0000   1.0000   1.0000   1.0000   1.0000
     1.0000   1.0000   1.0000   1.0000   1.0000   1.0000   1.0000   1.0000
     0.0000   0.0000   0.0000   0.0000   0.0000   0.0000   0.0000   0.0000
     0.0000   0.0000

          k = 0.0000 0.0000 0.2454 ( 38275 PWs)   bands (ev):

   -85.9179 -85.8962 -85.7342 -85.5297 -52.0215 -51.9862 -51.9691 -51.8774
   -51.8703 -51.8246 -51.8044 -51.7439 -51.6662 -51.5519 -51.5195 -51.3254
   -44.9089 -16.9767 -16.8955 -16.8710 -16.5637 -16.3554 -16.3218 -16.0911
   -14.2838 -14.1482 -14.1187 -14.0438 -14.0192 -13.8975 -13.8515 -13.7977
   -13.6764 -13.5855 -13.5047 -13.4835  -4.8188  -4.4518  -4.0510  -3.9084
    -2.7049  -2.5985  -2.2318  -2.1636  -1.8977  -1.7668  -1.6688  -1.5852
    -1.4953  -1.4212  -1.3901  -1.2230  -0.6748  -0.5829  -0.3459  -0.1676
    -0.1188  -0.0351   0.0708   0.1395   0.2257   0.2698   0.3073   0.3965
     0.6245   0.8342   0.9221   0.9833   1.0897   1.1755   1.2767   1.4330
     1.4798   1.5141   1.5777   1.6385   1.6721   1.7870   1.8711   1.9826
     2.0443   2.1630   2.2298   2.2958   2.3723   2.3881   2.5876   2.6836
     2.7785   2.9061   2.9835   3.0718   3.1117   3.1918   3.3025   3.3270
     3.4103   3.4571   3.5776   3.6498   3.7027   3.7568   4.0203   4.2437
     8.2440  10.0974  10.5106  10.7806  11.2601  11.9641  12.1858  12.3209
    12.4150  12.4769

     occupation numbers 
     1.0000   1.0000   1.0000   1.0000   1.0000   1.0000   1.0000   1.0000
     1.0000   1.0000   1.0000   1.0000   1.0000   1.0000   1.0000   1.0000
     1.0000   1.0000   1.0000   1.0000   1.0000   1.0000   1.0000   1.0000
     1.0000   1.0000   1.0000   1.0000   1.0000   1.0000   1.0000   1.0000
     1.0000   1.0000   1.0000   1.0000   1.0000   1.0000   1.0000   1.0000
     1.0000   1.0000   1.0000   1.0000   1.0000   1.0000   1.0000   1.0000
     1.0000   1.0000   1.0000   1.0000   1.0000   1.0000   1.0000   1.0000
     1.0000   1.0000   1.0000   1.0000   1.0000   1.0000   1.0000   1.0000
     1.0000   1.0000   1.0000   1.0000   1.0000   1.0000   1.0000   1.0000
     1.0000   1.0000   1.0000   1.0000   1.0000   1.0000   1.0000   1.0000
     1.0000   1.0000   1.0000   1.0000   1.0000   1.0000   1.0000   1.0000
     1.0000   1.0000   1.0000   1.0000   1.0000   1.0000   1.0000   1.0000
     1.0000   1.0000   1.0000   1.0000   1.0000   1.0000   1.0000   1.0000
     0.0000   0.0000   0.0000   0.0000   0.0000   0.0000   0.0000   0.0000
     0.0000   0.0000

          k = 0.0000 0.0000 0.4908 ( 38314 PWs)   bands (ev):

   -85.9179 -85.8962 -85.7342 -85.5297 -52.0215 -51.9862 -51.9691 -51.8774
   -51.8703 -51.8246 -51.8044 -51.7439 -51.6662 -51.5519 -51.5195 -51.3254
   -44.9089 -16.9774 -16.9022 -16.8712 -16.5311 -16.3318 -16.3002 -16.0849
   -14.3066 -14.1682 -14.1579 -14.0636 -14.0233 -13.9166 -13.8649 -13.8127
   -13.6676 -13.5786 -13.5073 -13.4823  -4.7485  -4.4102  -4.0424  -3.8695
    -2.6743  -2.5187  -2.2196  -2.1484  -1.9004  -1.7793  -1.6805  -1.5534
    -1.4889  -1.4266  -1.3546  -1.1976  -0.6743  -0.5442  -0.3413  -0.1665
    -0.1505  -0.0252   0.0297   0.1192   0.2320   0.2988   0.3493   0.4081
     0.5993   0.8051   0.8752   0.9955   1.0683   1.1505   1.2661   1.3972
     1.4267   1.5028   1.5210   1.6165   1.6632   1.7966   1.8633   1.9689
     2.0525   2.1449   2.1959   2.2381   2.3017   2.3878   2.6128   2.6694
     2.7363   2.9104   2.9904   3.0534   3.1235   3.1608   3.2961   3.3239
     3.4044   3.4881   3.5572   3.6382   3.7196   3.7480   4.0159   4.2383
     8.6165  10.2844  10.5949  10.8628  11.3335  11.8762  11.9564  12.1493
    12.3319  12.4495

     occupation numbers 
     1.0000   1.0000   1.0000   1.0000   1.0000   1.0000   1.0000   1.0000
     1.0000   1.0000   1.0000   1.0000   1.0000   1.0000   1.0000   1.0000
     1.0000   1.0000   1.0000   1.0000   1.0000   1.0000   1.0000   1.0000
     1.0000   1.0000   1.0000   1.0000   1.0000   1.0000   1.0000   1.0000
     1.0000   1.0000   1.0000   1.0000   1.0000   1.0000   1.0000   1.0000
     1.0000   1.0000   1.0000   1.0000   1.0000   1.0000   1.0000   1.0000
     1.0000   1.0000   1.0000   1.0000   1.0000   1.0000   1.0000   1.0000
     1.0000   1.0000   1.0000   1.0000   1.0000   1.0000   1.0000   1.0000
     1.0000   1.0000   1.0000   1.0000   1.0000   1.0000   1.0000   1.0000
     1.0000   1.0000   1.0000   1.0000   1.0000   1.0000   1.0000   1.0000
     1.0000   1.0000   1.0000   1.0000   1.0000   1.0000   1.0000   1.0000
     1.0000   1.0000   1.0000   1.0000   1.0000   1.0000   1.0000   1.0000
     1.0000   1.0000   1.0000   1.0000   1.0000   1.0000   1.0000   1.0000
     0.0000   0.0000   0.0000   0.0000   0.0000   0.0000   0.0000   0.0000
     0.0000   0.0000

          k = 0.0000 0.0000 0.7363 ( 38338 PWs)   bands (ev):

   -85.9179 -85.8962 -85.7342 -85.5297 -52.0215 -51.9862 -51.9691 -51.8774
   -51.8703 -51.8246 -51.8044 -51.7439 -51.6662 -51.5519 -51.5195 -51.3254
   -44.9089 -16.9792 -16.9085 -16.8708 -16.4925 -16.3029 -16.2752 -16.0801
   -14.3401 -14.2100 -14.1705 -14.0968 -14.0240 -13.9648 -13.8634 -13.8130
   -13.6605 -13.5761 -13.5099 -13.4809  -4.6650  -4.3595  -4.0261  -3.8489
    -2.6438  -2.4208  -2.1985  -2.1235  -1.9147  -1.8029  -1.6955  -1.5350
    -1.4591  -1.4015  -1.2975  -1.1998  -0.6843  -0.4969  -0.2896  -0.2020
    -0.1316  -0.0270   0.0312   0.1390   0.2554   0.3370   0.3717   0.4234
     0.5890   0.7460   0.8067   0.9509   1.0237   1.0900   1.2067   1.2814
     1.3646   1.4373   1.5639   1.6457   1.6628   1.7801   1.8053   1.9287
     2.0112   2.0940   2.1146   2.2308   2.2907   2.4187   2.6037   2.6499
     2.7495   2.9136   2.9499   3.0674   3.1470   3.1923   3.2925   3.3347
     3.4033   3.4733   3.5816   3.6260   3.7226   3.7380   4.0153   4.2304
     9.1274  10.4476  10.6503  10.9723  11.2950  11.7229  11.8734  11.9936
    12.1960  12.3606

     occupation numbers 
     1.0000   1.0000   1.0000   1.0000   1.0000   1.0000   1.0000   1.0000
     1.0000   1.0000   1.0000   1.0000   1.0000   1.0000   1.0000   1.0000
     1.0000   1.0000   1.0000   1.0000   1.0000   1.0000   1.0000   1.0000
     1.0000   1.0000   1.0000   1.0000   1.0000   1.0000   1.0000   1.0000
     1.0000   1.0000   1.0000   1.0000   1.0000   1.0000   1.0000   1.0000
     1.0000   1.0000   1.0000   1.0000   1.0000   1.0000   1.0000   1.0000
     1.0000   1.0000   1.0000   1.0000   1.0000   1.0000   1.0000   1.0000
     1.0000   1.0000   1.0000   1.0000   1.0000   1.0000   1.0000   1.0000
     1.0000   1.0000   1.0000   1.0000   1.0000   1.0000   1.0000   1.0000
     1.0000   1.0000   1.0000   1.0000   1.0000   1.0000   1.0000   1.0000
     1.0000   1.0000   1.0000   1.0000   1.0000   1.0000   1.0000   1.0000
     1.0000   1.0000   1.0000   1.0000   1.0000   1.0000   1.0000   1.0000
     1.0000   1.0000   1.0000   1.0000   1.0000   1.0000   1.0000   1.0000
     0.0000   0.0000   0.0000   0.0000   0.0000   0.0000   0.0000   0.0000
     0.0000   0.0000

          k = 0.0000 0.0000 0.9817 ( 38334 PWs)   bands (ev):

   -85.9179 -85.8962 -85.7342 -85.5297 -52.0215 -51.9862 -51.9691 -51.8774
   -51.8703 -51.8246 -51.8044 -51.7439 -51.6662 -51.5519 -51.5195 -51.3254
   -44.9089 -16.9809 -16.9118 -16.8703 -16.4663 -16.2824 -16.2586 -16.0789
   -14.3645 -14.2412 -14.1642 -14.1278 -14.0211 -14.0023 -13.8637 -13.8054
   -13.6568 -13.5774 -13.5112 -13.4798  -4.6079  -4.3241  -4.0133  -3.8481
    -2.6237  -2.3606  -2.1909  -2.0881  -1.9284  -1.8212  -1.7111  -1.5109
    -1.4370  -1.3708  -1.2845  -1.1975  -0.6918  -0.4596  -0.2515  -0.2078
    -0.0973  -0.0347   0.0983   0.2285   0.2507   0.3201   0.3708   0.4633
     0.5897   0.6368   0.7061   0.9021   0.9585   1.0296   1.1835   1.2520
     1.3138   1.3882   1.5962   1.6250   1.6691   1.7289   1.7690   1.9190
     1.9427   2.0626   2.1408   2.2105   2.2909   2.4583   2.5693   2.6471
     2.7598   2.9068   2.9370   3.0914   3.1692   3.2260   3.2836   3.3359
     3.4142   3.4698   3.5829   3.6408   3.7117   3.7326   4.0186   4.2224
     9.6748  10.2186  10.8002  11.0070  11.2101  11.6473  11.8748  12.0155
    12.1196  12.2061

     occupation numbers 
     1.0000   1.0000   1.0000   1.0000   1.0000   1.0000   1.0000   1.0000
     1.0000   1.0000   1.0000   1.0000   1.0000   1.0000   1.0000   1.0000
     1.0000   1.0000   1.0000   1.0000   1.0000   1.0000   1.0000   1.0000
     1.0000   1.0000   1.0000   1.0000   1.0000   1.0000   1.0000   1.0000
     1.0000   1.0000   1.0000   1.0000   1.0000   1.0000   1.0000   1.0000
     1.0000   1.0000   1.0000   1.0000   1.0000   1.0000   1.0000   1.0000
     1.0000   1.0000   1.0000   1.0000   1.0000   1.0000   1.0000   1.0000
     1.0000   1.0000   1.0000   1.0000   1.0000   1.0000   1.0000   1.0000
     1.0000   1.0000   1.0000   1.0000   1.0000   1.0000   1.0000   1.0000
     1.0000   1.0000   1.0000   1.0000   1.0000   1.0000   1.0000   1.0000
     1.0000   1.0000   1.0000   1.0000   1.0000   1.0000   1.0000   1.0000
     1.0000   1.0000   1.0000   1.0000   1.0000   1.0000   1.0000   1.0000
     1.0000   1.0000   1.0000   1.0000   1.0000   1.0000   1.0000   1.0000
     0.0000   0.0000   0.0000   0.0000   0.0000   0.0000   0.0000   0.0000
     0.0000   0.0000

          k = 0.0000 0.2510 0.0000 ( 38299 PWs)   bands (ev):

   -85.9179 -85.8962 -85.7342 -85.5297 -52.0215 -51.9862 -51.9691 -51.8774
   -51.8703 -51.8246 -51.8044 -51.7439 -51.6662 -51.5519 -51.5195 -51.3254
   -44.9089 -16.9805 -16.8971 -16.8725 -16.5602 -16.3604 -16.3173 -16.1040
   -14.2897 -14.1378 -14.1062 -14.0548 -14.0213 -13.9014 -13.8389 -13.7865
   -13.6727 -13.5908 -13.4996 -13.4809  -4.8087  -4.4364  -4.0636  -3.9318
    -2.6878  -2.5859  -2.2269  -2.1653  -1.9005  -1.7781  -1.6580  -1.5991
    -1.4958  -1.4227  -1.3489  -1.2442  -0.6924  -0.6040  -0.3734  -0.2265
    -0.1015  -0.0276   0.0190   0.1255   0.2101   0.2662   0.3854   0.4386
     0.6401   0.8144   0.8952   0.9880   1.1146   1.1682   1.2303   1.3732
     1.4357   1.5057   1.5568   1.6336   1.7141   1.7698   1.8813   1.9782
     2.0973   2.1613   2.2274   2.2883   2.3515   2.4443   2.5696   2.6811
     2.7971   2.9261   2.9628   3.0192   3.1172   3.1935   3.2999   3.3438
     3.4189   3.4429   3.5511   3.6299   3.7494   3.8425   4.0896   4.2523
     8.2597  10.0922  10.5534  10.6812  11.2466  11.8890  12.2497  12.3583
    12.4326  12.4991

     occupation numbers 
     1.0000   1.0000   1.0000   1.0000   1.0000   1.0000   1.0000   1.0000
     1.0000   1.0000   1.0000   1.0000   1.0000   1.0000   1.0000   1.0000
     1.0000   1.0000   1.0000   1.0000   1.0000   1.0000   1.0000   1.0000
     1.0000   1.0000   1.0000   1.0000   1.0000   1.0000   1.0000   1.0000
     1.0000   1.0000   1.0000   1.0000   1.0000   1.0000   1.0000   1.0000
     1.0000   1.0000   1.0000   1.0000   1.0000   1.0000   1.0000   1.0000
     1.0000   1.0000   1.0000   1.0000   1.0000   1.0000   1.0000   1.0000
     1.0000   1.0000   1.0000   1.0000   1.0000   1.0000   1.0000   1.0000
     1.0000   1.0000   1.0000   1.0000   1.0000   1.0000   1.0000   1.0000
     1.0000   1.0000   1.0000   1.0000   1.0000   1.0000   1.0000   1.0000
     1.0000   1.0000   1.0000   1.0000   1.0000   1.0000   1.0000   1.0000
     1.0000   1.0000   1.0000   1.0000   1.0000   1.0000   1.0000   1.0000
     1.0000   1.0000   1.0000   1.0000   1.0000   1.0000   1.0000   1.0000
     0.0000   0.0000   0.0000   0.0000   0.0000   0.0000   0.0000   0.0000
     0.0000   0.0000

          k = 0.0000 0.2510 0.2454 ( 38259 PWs)   bands (ev):

   -85.9179 -85.8962 -85.7342 -85.5297 -52.0215 -51.9862 -51.9691 -51.8774
   -51.8703 -51.8246 -51.8044 -51.7439 -51.6662 -51.5519 -51.5195 -51.3254
   -44.9089 -16.9779 -16.9024 -16.8720 -16.5506 -16.3494 -16.3128 -16.0960
   -14.3032 -14.1442 -14.1202 -14.0593 -14.0253 -13.9021 -13.8490 -13.7938
   -13.6699 -13.5886 -13.5001 -13.4806  -4.7874  -4.4228  -4.0562  -3.9018
    -2.6739  -2.5624  -2.2428  -2.1473  -1.8807  -1.7669  -1.6665  -1.5798
    -1.4927  -1.4503  -1.3836  -1.1965  -0.6930  -0.5852  -0.3695  -0.2182
    -0.0937  -0.0465   0.0647   0.1343   0.1692   0.2505   0.3769   0.4143
     0.6152   0.7883   0.8270   1.0090   1.0917   1.1700   1.2172   1.3932
     1.4513   1.5295   1.6014   1.6237   1.7107   1.7993   1.8816   1.9657
     2.0839   2.1583   2.2189   2.2732   2.2985   2.4299   2.5755   2.6607
     2.7771   2.9023   2.9505   3.0298   3.1263   3.1508   3.3139   3.3368
     3.4169   3.4584   3.5350   3.6711   3.7280   3.8532   4.0889   4.2506
     8.3866  10.1704  10.5990  10.7093  11.2896  11.8619  12.1922  12.2666
    12.4477  12.5192

     occupation numbers 
     1.0000   1.0000   1.0000   1.0000   1.0000   1.0000   1.0000   1.0000
     1.0000   1.0000   1.0000   1.0000   1.0000   1.0000   1.0000   1.0000
     1.0000   1.0000   1.0000   1.0000   1.0000   1.0000   1.0000   1.0000
     1.0000   1.0000   1.0000   1.0000   1.0000   1.0000   1.0000   1.0000
     1.0000   1.0000   1.0000   1.0000   1.0000   1.0000   1.0000   1.0000
     1.0000   1.0000   1.0000   1.0000   1.0000   1.0000   1.0000   1.0000
     1.0000   1.0000   1.0000   1.0000   1.0000   1.0000   1.0000   1.0000
     1.0000   1.0000   1.0000   1.0000   1.0000   1.0000   1.0000   1.0000
     1.0000   1.0000   1.0000   1.0000   1.0000   1.0000   1.0000   1.0000
     1.0000   1.0000   1.0000   1.0000   1.0000   1.0000   1.0000   1.0000
     1.0000   1.0000   1.0000   1.0000   1.0000   1.0000   1.0000   1.0000
     1.0000   1.0000   1.0000   1.0000   1.0000   1.0000   1.0000   1.0000
     1.0000   1.0000   1.0000   1.0000   1.0000   1.0000   1.0000   1.0000
     0.0000   0.0000   0.0000   0.0000   0.0000   0.0000   0.0000   0.0000
     0.0000   0.0000

          k = 0.0000 0.2510 0.4908 ( 38306 PWs)   bands (ev):

   -85.9179 -85.8962 -85.7342 -85.5297 -52.0215 -51.9862 -51.9691 -51.8774
   -51.8703 -51.8246 -51.8044 -51.7439 -51.6662 -51.5519 -51.5195 -51.3254
   -44.9089 -16.9761 -16.9106 -16.8721 -16.5213 -16.3239 -16.2951 -16.0841
   -14.3269 -14.1675 -14.1592 -14.0703 -14.0418 -13.9096 -13.8651 -13.8092
   -13.6623 -13.5829 -13.5029 -13.4795  -4.7215  -4.3830  -4.0414  -3.8496
    -2.6500  -2.4955  -2.2251  -2.1334  -1.8802  -1.7702  -1.6522  -1.5630
    -1.5108  -1.4166  -1.3911  -1.1624  -0.7036  -0.5513  -0.3443  -0.2070
    -0.1112  -0.0583   0.0451   0.1319   0.1721   0.2712   0.3726   0.4342
     0.5631   0.7263   0.8023   0.9999   1.0775   1.1576   1.1939   1.3694
     1.4544   1.4728   1.5767   1.6462   1.6953   1.8249   1.8745   1.9685
     2.0318   2.1309   2.1953   2.2190   2.2851   2.3556   2.6025   2.6362
     2.7509   2.8528   2.9348   3.0526   3.0979   3.1709   3.3088   3.3372
     3.4172   3.4602   3.5507   3.6882   3.7257   3.8528   4.0729   4.2524
     8.7375  10.3618  10.6762  10.7969  11.3741  11.8520  11.9454  12.1183
    12.2881  12.4563

     occupation numbers 
     1.0000   1.0000   1.0000   1.0000   1.0000   1.0000   1.0000   1.0000
     1.0000   1.0000   1.0000   1.0000   1.0000   1.0000   1.0000   1.0000
     1.0000   1.0000   1.0000   1.0000   1.0000   1.0000   1.0000   1.0000
     1.0000   1.0000   1.0000   1.0000   1.0000   1.0000   1.0000   1.0000
     1.0000   1.0000   1.0000   1.0000   1.0000   1.0000   1.0000   1.0000
     1.0000   1.0000   1.0000   1.0000   1.0000   1.0000   1.0000   1.0000
     1.0000   1.0000   1.0000   1.0000   1.0000   1.0000   1.0000   1.0000
     1.0000   1.0000   1.0000   1.0000   1.0000   1.0000   1.0000   1.0000
     1.0000   1.0000   1.0000   1.0000   1.0000   1.0000   1.0000   1.0000
     1.0000   1.0000   1.0000   1.0000   1.0000   1.0000   1.0000   1.0000
     1.0000   1.0000   1.0000   1.0000   1.0000   1.0000   1.0000   1.0000
     1.0000   1.0000   1.0000   1.0000   1.0000   1.0000   1.0000   1.0000
     1.0000   1.0000   1.0000   1.0000   1.0000   1.0000   1.0000   1.0000
     0.0000   0.0000   0.0000   0.0000   0.0000   0.0000   0.0000   0.0000
     0.0000   0.0000

          k = 0.0000 0.2510 0.7363 ( 38323 PWs)   bands (ev):

   -85.9179 -85.8962 -85.7342 -85.5297 -52.0215 -51.9862 -51.9691 -51.8774
   -51.8703 -51.8246 -51.8044 -51.7439 -51.6662 -51.5519 -51.5195 -51.3254
   -44.9089 -16.9768 -16.9169 -16.8719 -16.4846 -16.2950 -16.2717 -16.0755
   -14.3553 -14.2078 -14.1864 -14.0914 -14.0602 -13.9395 -13.8655 -13.8123
   -13.6555 -13.5799 -13.5067 -13.4778  -4.6386  -4.3328  -4.0245  -3.8156
    -2.6292  -2.4096  -2.1896  -2.1140  -1.8980  -1.7965  -1.6594  -1.5533
    -1.4824  -1.3825  -1.3312  -1.1701  -0.7184  -0.5201  -0.2787  -0.2121
    -0.1151  -0.0660   0.0232   0.1407   0.2164   0.3067   0.3946   0.4852
     0.5279   0.6745   0.7585   0.9406   1.0549   1.0867   1.1775   1.2772
     1.3690   1.4466   1.4858   1.6728   1.7115   1.7852   1.8428   1.9339
     1.9936   2.0668   2.1744   2.2099   2.2724   2.3438   2.5865   2.6595
     2.7543   2.8338   2.8969   3.0542   3.1250   3.1913   3.2971   3.3580
     3.4180   3.4557   3.5888   3.6625   3.7416   3.8538   4.0576   4.2512
     9.2249  10.5754  10.6668  10.9239  11.3548  11.7188  11.8963  11.9790
    12.1544  12.3473

     occupation numbers 
     1.0000   1.0000   1.0000   1.0000   1.0000   1.0000   1.0000   1.0000
     1.0000   1.0000   1.0000   1.0000   1.0000   1.0000   1.0000   1.0000
     1.0000   1.0000   1.0000   1.0000   1.0000   1.0000   1.0000   1.0000
     1.0000   1.0000   1.0000   1.0000   1.0000   1.0000   1.0000   1.0000
     1.0000   1.0000   1.0000   1.0000   1.0000   1.0000   1.0000   1.0000
     1.0000   1.0000   1.0000   1.0000   1.0000   1.0000   1.0000   1.0000
     1.0000   1.0000   1.0000   1.0000   1.0000   1.0000   1.0000   1.0000
     1.0000   1.0000   1.0000   1.0000   1.0000   1.0000   1.0000   1.0000
     1.0000   1.0000   1.0000   1.0000   1.0000   1.0000   1.0000   1.0000
     1.0000   1.0000   1.0000   1.0000   1.0000   1.0000   1.0000   1.0000
     1.0000   1.0000   1.0000   1.0000   1.0000   1.0000   1.0000   1.0000
     1.0000   1.0000   1.0000   1.0000   1.0000   1.0000   1.0000   1.0000
     1.0000   1.0000   1.0000   1.0000   1.0000   1.0000   1.0000   1.0000
     0.0000   0.0000   0.0000   0.0000   0.0000   0.0000   0.0000   0.0000
     0.0000   0.0000

          k = 0.0000 0.2510 0.9817 ( 38330 PWs)   bands (ev):

   -85.9179 -85.8962 -85.7342 -85.5297 -52.0215 -51.9862 -51.9691 -51.8774
   -51.8703 -51.8246 -51.8044 -51.7439 -51.6662 -51.5519 -51.5195 -51.3254
   -44.9089 -16.9796 -16.9185 -16.8719 -16.4581 -16.2750 -16.2542 -16.0752
   -14.3748 -14.2406 -14.1907 -14.1137 -14.0710 -13.9656 -13.8655 -13.8048
   -13.6517 -13.5801 -13.5093 -13.4765  -4.5751  -4.2947  -4.0132  -3.8206
    -2.6084  -2.3530  -2.1751  -2.0842  -1.9143  -1.8193  -1.6949  -1.5272
    -1.4449  -1.3490  -1.2788  -1.1989  -0.7302  -0.4943  -0.2409  -0.2189
    -0.1095  -0.0744   0.0611   0.2154   0.2341   0.3433   0.3982   0.5009
     0.5880   0.6076   0.6811   0.8790   0.9563   1.0433   1.1796   1.1997
     1.3194   1.3803   1.5213   1.6255   1.6722   1.7616   1.7957   1.9186
     1.9487   2.0364   2.1646   2.2104   2.2666   2.4082   2.5759   2.6578
     2.7677   2.8045   2.9069   3.0624   3.1295   3.2155   3.3065   3.3715
     3.4037   3.4787   3.5902   3.6566   3.7396   3.8500   4.0614   4.2427
     9.7470  10.3370  10.8088  11.0319  11.2504  11.6235  11.8413  12.0712
    12.1292  12.2283

     occupation numbers 
     1.0000   1.0000   1.0000   1.0000   1.0000   1.0000   1.0000   1.0000
     1.0000   1.0000   1.0000   1.0000   1.0000   1.0000   1.0000   1.0000
     1.0000   1.0000   1.0000   1.0000   1.0000   1.0000   1.0000   1.0000
     1.0000   1.0000   1.0000   1.0000   1.0000   1.0000   1.0000   1.0000
     1.0000   1.0000   1.0000   1.0000   1.0000   1.0000   1.0000   1.0000
     1.0000   1.0000   1.0000   1.0000   1.0000   1.0000   1.0000   1.0000
     1.0000   1.0000   1.0000   1.0000   1.0000   1.0000   1.0000   1.0000
     1.0000   1.0000   1.0000   1.0000   1.0000   1.0000   1.0000   1.0000
     1.0000   1.0000   1.0000   1.0000   1.0000   1.0000   1.0000   1.0000
     1.0000   1.0000   1.0000   1.0000   1.0000   1.0000   1.0000   1.0000
     1.0000   1.0000   1.0000   1.0000   1.0000   1.0000   1.0000   1.0000
     1.0000   1.0000   1.0000   1.0000   1.0000   1.0000   1.0000   1.0000
     1.0000   1.0000   1.0000   1.0000   1.0000   1.0000   1.0000   1.0000
     0.0000   0.0000   0.0000   0.0000   0.0000   0.0000   0.0000   0.0000
     0.0000   0.0000

          k = 0.0000 0.5020 0.0000 ( 38283 PWs)   bands (ev):

   -85.9179 -85.8962 -85.7342 -85.5297 -52.0215 -51.9862 -51.9691 -51.8774
   -51.8703 -51.8246 -51.8044 -51.7439 -51.6662 -51.5519 -51.5195 -51.3254
   -44.9089 -16.9905 -16.9061 -16.8740 -16.5237 -16.3498 -16.2870 -16.1312
   -14.3156 -14.1505 -14.1121 -14.0826 -14.0289 -13.9085 -13.8373 -13.7855
   -13.6558 -13.5937 -13.4901 -13.4752  -4.7210  -4.3637  -4.0916  -3.9426
    -2.6001  -2.4752  -2.2223  -2.1392  -1.9031  -1.8165  -1.6449  -1.6053
    -1.4933  -1.3730  -1.3269  -1.2374  -0.7488  -0.6228  -0.4625  -0.3204
    -0.1539  -0.0746  -0.0188   0.0907   0.1895   0.2726   0.4580   0.5474
     0.6528   0.7388   0.8668   1.0017   1.1090   1.1658   1.2043   1.3240
     1.3553   1.4324   1.5196   1.6302   1.7282   1.7535   1.8719   1.9837
     2.0898   2.1435   2.1959   2.2664   2.3758   2.4482   2.5133   2.6248
     2.7775   2.8664   2.9580   3.0309   3.1296   3.1567   3.2589   3.3821
     3.4339   3.4632   3.5123   3.5989   3.8342   3.9489   4.2241   4.2767
[...]
     atom    7 type  4   force =     0.06227958   -0.00409153   -0.00245833
     atom    8 type  4   force =     0.04092880   -0.03097295   -0.00883218
     atom    9 type  4   force =    -0.06315280    0.00674950   -0.00095845
     atom   10 type  3   force =    -0.00874172    0.00071559    0.00034145
     atom   11 type  3   force =    -0.00415447    0.00381685   -0.00513437
     atom   12 type  3   force =     0.00668149    0.00808032    0.00556954
     atom   13 type  3   force =     0.00250718   -0.00392021    0.00468997
     atom   14 type  3   force =     0.08312267   -0.00685694   -0.01332557
     atom   15 type  3   force =    -0.07527252    0.02127754    0.00596308
     atom   16 type  3   force =    -0.08745519    0.00536825    0.01127445
     atom   17 type  3   force =     0.06894676   -0.01517870   -0.00104273
     atom   18 type  3   force =    -0.00736656   -0.00975929    0.00529146
     atom   19 type  3   force =     0.01147783    0.00258367    0.00540097
     atom   20 type  3   force =    -0.00434949    0.00396120   -0.00828724
     atom   21 type  3   force =     0.00353311    0.00070490    0.00315047
     atom   22 type  3   force =     0.00826757    0.01046659   -0.00701634
     atom   23 type  3   force =    -0.01287932   -0.00527221   -0.00865830
     atom   24 type  3   force =     0.00403195   -0.00388060    0.00692729
     atom   25 type  3   force =     0.00083065   -0.00147631   -0.00185337
     The non-local contrib.  to forces
     atom    1 type  2   force =    -0.06363166   -0.00720380   -0.01410698
     atom    2 type  1   force =     0.06565198   -0.13445548   -0.02650226
     atom    3 type  1   force =    -0.01632971   -0.13129406    0.15943120
     atom    4 type  1   force =    -0.04320076    0.11529630    0.13145664
     atom    5 type  1   force =     0.01681366    0.16393023   -0.07446431
     atom    6 type  4   force =    -0.09622071    0.08784239    0.02437531
     atom    7 type  4   force =     0.04353579    0.01109344   -0.07742801
     atom    8 type  4   force =     0.05037774   -0.07919991   -0.04991101
     atom    9 type  4   force =    -0.05499988    0.00219947    0.06665957
     atom   10 type  3   force =    -0.40282008   -0.12266547   -1.21398008
     atom   11 type  3   force =    -0.01271913    0.18278794   -1.47532672
     atom   12 type  3   force =     0.49734602    0.13896144    1.16332002
     atom   13 type  3   force =    -0.07697017   -0.21463225    1.45646533
     atom   14 type  3   force =     1.35229905   -0.15204725   -0.53584987
     atom   15 type  3   force =    -1.26110161    0.63490952   -0.08250026
     atom   16 type  3   force =    -1.40710301    0.10845666    0.55457320
     atom   17 type  3   force =     1.20801506   -0.65401632    0.21295541
     atom   18 type  3   force =    -0.46270728   -1.33395188    0.66739807
     atom   19 type  3   force =     0.57251150    0.71959346    0.95173820
     atom   20 type  3   force =    -0.06727520   -1.46319652   -0.97956569
     atom   21 type  3   force =    -0.13326601    0.98494837   -0.66106031
     atom   22 type  3   force =     0.41835619    1.25253718   -0.72696934
     atom   23 type  3   force =    -0.62193995   -0.65536288   -0.99236244
     atom   24 type  3   force =     0.10249486    1.47034099    1.03532171
     atom   25 type  3   force =     0.31453645   -0.94332443    0.67138905
     The ionic contribution  to forces
     atom    1 type  2   force =    -1.34999484    3.32219123    2.26779017
     atom    2 type  1   force =    13.99205713   -0.22301859   -0.14443049
     atom    3 type  1   force =     2.72617523   -6.42778885   -3.08370902
     atom    4 type  1   force =   -11.35322057   -3.71788256    1.90750251
     atom    5 type  1   force =    -6.12469500    8.38292366    1.32121816
     atom    6 type  4   force =    -1.33496714    1.57641916   -0.76761862
     atom    7 type  4   force =     5.17979612   -0.07247415    0.86557841
     atom    8 type  4   force =     2.39613154   -2.82564453    0.60168871
     atom    9 type  4   force =    -5.33708783    0.79746911   -1.16886171
     atom   10 type  3   force =    -0.81674298    1.77258953   -0.60030409
     atom   11 type  3   force =     8.45044134   -1.94183075    2.48522392
     atom   12 type  3   force =     2.07083425   -6.78747326   -1.56064497
     atom   13 type  3   force =    -8.48619550    3.20394669   -2.41523013
     atom   14 type  3   force =     1.78025217    0.42247404    6.17579786
     atom   15 type  3   force =    -0.34035500   -3.16966296    2.07517534
     atom   16 type  3   force =    -1.21634396   -0.50807761   -6.59803295
     atom   17 type  3   force =     0.25624882    5.72531681   -3.37130992
     atom   18 type  3   force =    -1.03519669    7.60604243    3.14445215
     atom   19 type  3   force =     5.36173211   -0.51018913   -4.10589739
     atom   20 type  3   force =     3.20584833    2.42531719    8.24581544
     atom   21 type  3   force =    -9.93635665   -0.65106855    0.63251169
     atom   22 type  3   force =     2.07958310   -5.83138696   -0.90687159
     atom   23 type  3   force =    -4.22919035    0.72636236    4.49530286
     atom   24 type  3   force =    -4.12552093   -4.50912516   -8.35404811
     atom   25 type  3   force =     8.18676731    1.21457088   -1.14109821
     The local contribution  to forces
     atom    1 type  2   force =     1.41600683   -3.31940617   -2.24335850
     atom    2 type  1   force =   -14.05758914    0.35711937    0.18164212
     atom    3 type  1   force =    -2.71778819    6.55909483    2.92185018
     atom    4 type  1   force =    11.39480263    3.60385303   -2.05436322
     atom    5 type  1   force =     6.11945596   -8.55258923   -1.24639828
     atom    6 type  4   force =     1.38773517   -1.63341010    0.75250520
     atom    7 type  4   force =    -5.15516608    0.05798262   -0.79622194
     atom    8 type  4   force =    -2.39889306    2.86729725   -0.56458965
     atom    9 type  4   force =     5.32230869   -0.79201160    1.10557018
     atom   10 type  3   force =     1.20772271   -1.65022579    1.80402901
     atom   11 type  3   force =    -8.44276125    1.76471260   -1.02800139
     atom   12 type  3   force =    -2.55728119    6.65780689    0.41327910
     atom   13 type  3   force =     8.56573560   -2.99548303    0.97625180
     atom   14 type  3   force =    -3.03647994   -0.27880562   -5.65889253
     atom   15 type  3   force =     1.51434512    2.56240935   -1.98794751
     atom   16 type  3   force =     2.52248109    0.40606452    6.06054219
     atom   17 type  3   force =    -1.38383255   -5.09315527    3.15972690
     atom   18 type  3   force =     1.48678668   -6.29434241   -3.80085277
     atom   19 type  3   force =    -5.91752068   -0.20077027    3.16834869
     atom   20 type  3   force =    -3.14379365   -0.97088831   -7.28372001
     atom   21 type  3   force =    10.07211408   -0.32460758    0.02570289
     atom   22 type  3   force =    -2.48637398    4.60103628    1.62052261
     atom   23 type  3   force =     4.83257163   -0.08172864   -3.52075541
     atom   24 type  3   force =     4.02832224    3.04764778    7.33544637
     atom   25 type  3   force =    -8.49763217   -0.28091587    0.47401968
     The core correction contribution to forces
     atom    1 type  2   force =     0.00000000    0.00000000    0.00000000
     atom    2 type  1   force =    -0.00256634    0.00160472    0.00001949
     atom    3 type  1   force =     0.00112041    0.00138686   -0.00136304
     atom    4 type  1   force =     0.00252496   -0.00075813   -0.00057183
     atom    5 type  1   force =    -0.00155523    0.00035706   -0.00065502
     atom    6 type  4   force =     0.01018490   -0.00652643   -0.00129285
     atom    7 type  4   force =    -0.00588819   -0.00069351    0.00561357
     atom    8 type  4   force =    -0.00668540    0.00657433    0.00397951
     atom    9 type  4   force =     0.00662325   -0.00090736   -0.00432641
     atom   10 type  3   force =     0.00310128    0.00101725    0.01059752
     atom   11 type  3   force =     0.00088224   -0.00185312    0.01297090
     atom   12 type  3   force =    -0.00421664   -0.00121462   -0.01038414
     atom   13 type  3   force =    -0.00006503    0.00224880   -0.01279741
     atom   14 type  3   force =    -0.01295150    0.00152209    0.00561864
     atom   15 type  3   force =     0.01184227   -0.00637796    0.00123516
     atom   16 type  3   force =     0.01350831   -0.00107534   -0.00580839
     atom   17 type  3   force =    -0.01148327    0.00667657   -0.00241508
     atom   18 type  3   force =     0.00375331    0.01249303   -0.00570683
     atom   19 type  3   force =    -0.00524674   -0.00605139   -0.00878912
     atom   20 type  3   force =     0.00087299    0.01272923    0.00918335
     atom   21 type  3   force =     0.00103918   -0.00856669    0.00599594
     atom   22 type  3   force =    -0.00329673   -0.01171992    0.00630148
     atom   23 type  3   force =     0.00567735    0.00545636    0.00915696
     atom   24 type  3   force =    -0.00126167   -0.01274543   -0.00979230
     atom   25 type  3   force =    -0.00284288    0.00819410   -0.00616440
     The Hubbard contrib.    to forces
     atom    1 type  2   force =     0.00000000    0.00000000    0.00000000
     atom    2 type  1   force =     0.00000000    0.00000000    0.00000000
     atom    3 type  1   force =     0.00000000    0.00000000    0.00000000
     atom    4 type  1   force =     0.00000000    0.00000000    0.00000000
     atom    5 type  1   force =     0.00000000    0.00000000    0.00000000
     atom    6 type  4   force =     0.00000000    0.00000000    0.00000000
     atom    7 type  4   force =     0.00000000    0.00000000    0.00000000
     atom    8 type  4   force =     0.00000000    0.00000000    0.00000000
     atom    9 type  4   force =     0.00000000    0.00000000    0.00000000
     atom   10 type  3   force =     0.00000000    0.00000000    0.00000000
     atom   11 type  3   force =     0.00000000    0.00000000    0.00000000
     atom   12 type  3   force =     0.00000000    0.00000000    0.00000000
     atom   13 type  3   force =     0.00000000    0.00000000    0.00000000
     atom   14 type  3   force =     0.00000000    0.00000000    0.00000000
     atom   15 type  3   force =     0.00000000    0.00000000    0.00000000
     atom   16 type  3   force =     0.00000000    0.00000000    0.00000000
     atom   17 type  3   force =     0.00000000    0.00000000    0.00000000
     atom   18 type  3   force =     0.00000000    0.00000000    0.00000000
     atom   19 type  3   force =     0.00000000    0.00000000    0.00000000
     atom   20 type  3   force =     0.00000000    0.00000000    0.00000000
     atom   21 type  3   force =     0.00000000    0.00000000    0.00000000
     atom   22 type  3   force =     0.00000000    0.00000000    0.00000000
     atom   23 type  3   force =     0.00000000    0.00000000    0.00000000
     atom   24 type  3   force =     0.00000000    0.00000000    0.00000000
     atom   25 type  3   force =     0.00000000    0.00000000    0.00000000
     The SCF correction term to forces
     atom    1 type  2   force =    -0.00000381   -0.00000011   -0.00000002
     atom    2 type  1   force =    -0.00000067   -0.00000037    0.00000035
     atom    3 type  1   force =    -0.00000143    0.00000070    0.00000083
     atom    4 type  1   force =     0.00000371   -0.00000008   -0.00000001
     atom    5 type  1   force =    -0.00000182   -0.00000077    0.00000055
     atom    6 type  4   force =    -0.00000171    0.00000041   -0.00000004
     atom    7 type  4   force =     0.00000182    0.00000022   -0.00000036
     atom    8 type  4   force =    -0.00000212    0.00000007    0.00000027
     atom    9 type  4   force =     0.00000285    0.00000002   -0.00000007
     atom   10 type  3   force =    -0.00000275    0.00000021   -0.00000092
     atom   11 type  3   force =     0.00000222    0.00000033   -0.00000109
     atom   12 type  3   force =    -0.00000106    0.00000001   -0.00000048
     atom   13 type  3   force =     0.00000218   -0.00000028    0.00000038
     atom   14 type  3   force =     0.00000278   -0.00000006    0.00000033
     atom   15 type  3   force =    -0.00000339   -0.00000027    0.00000034
     atom   16 type  3   force =     0.00000228    0.00000017    0.00000040
     atom   17 type  3   force =    -0.00000140   -0.00000035   -0.00000004
     atom   18 type  3   force =    -0.00000269   -0.00000032    0.00000084
     atom   19 type  3   force =     0.00000154    0.00000113    0.00000059
     atom   20 type  3   force =    -0.00000207   -0.00000024   -0.00000033
     atom   21 type  3   force =     0.00000240   -0.00000050    0.00000026
     atom   22 type  3   force =    -0.00000112    0.00000015    0.00000050
     atom   23 type  3   force =     0.00000189    0.00000072   -0.00000028
     atom   24 type  3   force =    -0.00000265    0.00000136   -0.00000037
     atom   25 type  3   force =     0.00000184   -0.00000084    0.00000051

     Total force =     0.201405     Total SCF correction =     0.000012


     Computing stress (Cartesian axis) and pressure


     negative rho (up, down):  0.000E+00 8.786E-04
          total   stress  (Ry/bohr**3)                   (kbar)     P=      -60.10
  -0.00116290   0.00015908   0.00003432         -171.07       23.40        5.05
   0.00015908   0.00001185  -0.00008781           23.40        1.74      -12.92
   0.00003432  -0.00008781  -0.00007467            5.05      -12.92      -10.98

     kinetic stress (kbar)  24993.40     80.98    -43.97
                               80.98  25257.18    -11.05
                              -43.97    -11.05  25228.17

     local   stress (kbar)  -7072.93   3263.75  -6993.51
                             3263.75 -15719.42    615.01
                            -6993.51    615.01  -5292.97

     nonloc. stress (kbar)  -6391.48     10.95      1.06
                               10.95  -6365.94     -2.03
                                1.06     -2.03  -6353.76

     hartree stress (kbar)  13301.89  -1237.89   2935.71
                            -1237.89  17629.72   -189.74
                             2935.71   -189.74  13089.50

     exc-cor stress (kbar)  -2657.04     -2.65      3.10
                               -2.65  -2660.43     -1.12
                                3.10     -1.12  -2662.05

     corecor stress (kbar)  -2963.88     -0.36     -0.84
                               -0.36  -2966.58      0.85
                               -0.84      0.85  -2966.37

     ewald   stress (kbar) -19381.01  -2091.39   4103.50
                            -2091.39 -15172.79   -424.84
                             4103.50   -424.84 -21053.50

     hubbard stress (kbar)      0.00      0.00      0.00
                                0.00      0.00      0.00
                                0.00      0.00      0.00

     DFT-D   stress (kbar)      0.00      0.00      0.00
                                0.00      0.00      0.00
                                0.00      0.00      0.00

     XDM     stress (kbar)      0.00      0.00      0.00
                                0.00      0.00      0.00
                                0.00      0.00      0.00

     dft-nl  stress (kbar)      0.00      0.00      0.00
                                0.00      0.00      0.00
                                0.00      0.00      0.00

     TS-vdW  stress (kbar)      0.00      0.00      0.00
                                0.00      0.00      0.00
                                0.00      0.00      0.00



     init_run     :   2079.10s CPU   2522.62s WALL (       1 calls)
     electrons    : 173096.09s CPU 211441.75s WALL (       1 calls)
     forces       :    292.95s CPU    376.49s WALL (       1 calls)
     stress       :   1808.88s CPU   1908.02s WALL (       1 calls)

     Called by init_run:
     wfcinit      :   2061.26s CPU   2484.66s WALL (       1 calls)
     wfcinit:atom :      2.91s CPU      3.68s WALL (     316 calls)
     wfcinit:wfcr :   2046.71s CPU   2466.39s WALL (     316 calls)
     potinit      :      6.87s CPU     14.08s WALL (       1 calls)
     hinit0       :      6.90s CPU     14.29s WALL (       1 calls)

     Called by electrons:
     c_bands      : 144418.96s CPU 175918.89s WALL (      36 calls)
     sum_band     :  28339.32s CPU  35082.67s WALL (      36 calls)
     v_of_rho     :     94.05s CPU    114.94s WALL (      37 calls)
     v_h          :      5.99s CPU      7.59s WALL (      37 calls)
     v_xc         :     92.37s CPU    113.13s WALL (      39 calls)
     newd         :    134.14s CPU    197.27s WALL (      37 calls)
     PAW_pot      :     36.57s CPU     46.26s WALL (      37 calls)
     mix_rho      :     57.32s CPU     67.88s WALL (      36 calls)

     Called by c_bands:
     init_us_2    :    315.81s CPU    401.08s WALL (   23700 calls)
     cegterg      : 142838.33s CPU 173940.32s WALL (   11376 calls)

     Called by sum_band:
     sum_band:wei :      0.69s CPU      1.05s WALL (      36 calls)
     sum_band:loo :  27972.11s CPU  34607.75s WALL (      36 calls)
     sum_band:buf :     93.76s CPU    127.03s WALL (   11376 calls)
     sum_band:ini :    130.25s CPU    157.11s WALL (   11376 calls)
     sum_band:cal :   2385.90s CPU   2898.67s WALL (   11376 calls)
     sum_band:bec :     12.12s CPU     13.35s WALL (   11376 calls)
     addusdens    :    285.33s CPU    388.08s WALL (      36 calls)
     addusd:skk   :      1.79s CPU      2.12s WALL (     108 calls)
     addusd:dgemm :     78.78s CPU    129.78s WALL (     216 calls)
     addusd:qvan2 :    200.89s CPU    245.80s WALL (     216 calls)

     Called by *egterg:
     cdiaghg      :   3579.94s CPU   4446.03s WALL (   38976 calls)
     cegterg:over :   6508.20s CPU   7805.54s WALL (   27600 calls)
     cegterg:upda :   1290.29s CPU   1627.94s WALL (   27600 calls)
     cegterg:last :   2593.61s CPU   3243.05s WALL (   17983 calls)
     h_psi        : 121811.12s CPU 148359.31s WALL (   39292 calls)
     s_psi        :   2991.75s CPU   3734.15s WALL (   39292 calls)
     g_psi        :     22.41s CPU     27.66s WALL (   27600 calls)

     Called by h_psi:
     h_psi:calbec :   5982.55s CPU   7229.82s WALL (   39292 calls)
     vloc_psi     : 112541.70s CPU 136956.04s WALL (   39292 calls)
     add_vuspsi   :   3152.81s CPU   4010.12s WALL (   39292 calls)

     General routines
     calbec       :   9195.06s CPU  11034.46s WALL (   52248 calls)
     fft          :    174.47s CPU    199.35s WALL (     963 calls)
     ffts         :     10.97s CPU     13.70s WALL (     146 calls)
     fftw         : 137329.07s CPU 167787.59s WALL ( 6953896 calls)
     interpolate  :     13.05s CPU     16.23s WALL (      74 calls)

     Parallel routines
     fft_scatt_xy :    714.26s CPU    718.97s WALL ( 6955005 calls)
     fft_scatt_yz : 132919.91s CPU 163295.43s WALL ( 6955005 calls)

     PAW routines
     PAW_pot      :     36.57s CPU     46.26s WALL (      37 calls)

     PWSCF        :   2d 1h14m CPU   2d12h 4m WALL


   This run was terminated on:   8:46:29  15Jan2023            

=------------------------------------------------------------------------------=
   JOB DONE.
=------------------------------------------------------------------------------=
Note: The following floating-point exceptions are signalling: IEEE_UNDERFLOW_FLAG IEEE_DENORMAL
Note: The following floating-point exceptions are signalling: IEEE_DENORMAL
Note: The following floating-point exceptions are signalling: IEEE_DENORMAL
Note: The following floating-point exceptions are signalling: IEEE_DENORMAL
Note: The following floating-point exceptions are signalling: IEEE_DENORMAL
Note: The following floating-point exceptions are signalling: IEEE_DENORMAL
Note: The following floating-point exceptions are signalling: IEEE_DENORMAL
Note: The following floating-point exceptions are signalling: IEEE_DENORMAL
