
     Program PWSCF v.6.7MaX starts on 15Jan2023 at  6: 4:26 

     This program is part of the open-source Quantum ESPRESSO suite
     for quantum simulation of materials; please cite
         "P. Giannozzi et al., J. Phys.:Condens. Matter 21 395502 (2009);
         "P. Giannozzi et al., J. Phys.:Condens. Matter 29 465901 (2017);
          URL http://www.quantum-espresso.org", 
     in publications or presentations arising from this work. More details at
     http://www.quantum-espresso.org/quote

     Parallel version (MPI), running on    12 processors

     MPI processes distributed on     1 nodes
     R & G space division:  proc/nbgrp/npool/nimage =      12
     Reading input from scale_2dab-03.in

     Current dimensions of program PWSCF are:
     Max number of different atomic species (ntypx) = 10
     Max number of k-points (npk) =  40000
     Max angular momentum in pseudopotentials (lmaxx) =  3
     Message from routine read_pp_mesh:
     mesh size missing, using the one in header
     file Fe.pbe-spn-kjpaw_psl.0.2.1.UPF: wavefunction(s)  3D renormalized
     file O.pbe-n-kjpaw_psl.0.1.UPF: wavefunction(s)  2P renormalized

     Subspace diagonalization in iterative solution of the eigenvalue problem:
     a serial algorithm will be used


     Parallelization info
     --------------------
     sticks:   dense  smooth     PW     G-vecs:    dense   smooth      PW
     Min        1710     633    170               111526    25140    3532
     Max        1711     634    171               111528    25141    3535
     Sum       20521    7599   2049              1338317   301689   42399



     bravais-lattice index     =            0
     lattice parameter (alat)  =      19.9928  a.u.
     unit-cell volume          =    2232.9698 (a.u.)^3
     number of atoms/cell      =           25
     number of atomic types    =            4
     number of electrons       =       189.00
     number of Kohn-Sham states=          114
     kinetic-energy cutoff     =     100.0000  Ry
     charge density cutoff     =    1080.0000  Ry
     scf convergence threshold =      2.0E-10
     mixing beta               =       0.4000
     number of iterations used =            8  plain     mixing
     Exchange-correlation= PBE
                           (   1   4   3   4   0   0   0)

     celldm(1)=  19.992808  celldm(2)=   0.000000  celldm(3)=   0.000000
     celldm(4)=   0.000000  celldm(5)=   0.000000  celldm(6)=   0.000000

     crystal axes: (cart. coord. in units of alat)
               a(1) = (   1.000000   0.000000   0.000000 )  
               a(2) = (   0.000000   0.597590   0.000000 )  
               a(3) = (   0.000000   0.000000   0.467582 )  

     reciprocal axes: (cart. coord. in units 2 pi/alat)
               b(1) = (  1.000000  0.000000  0.000000 )  
               b(2) = (  0.000000  1.673388  0.000000 )  
               b(3) = (  0.000000  0.000000  2.138660 )  


     PseudoPot. # 1 for Fe read from file:
     /opt/QEpot/SSSP_precision_pseudos/Fe.pbe-spn-kjpaw_psl.0.2.1.UPF
     MD5 check sum: e86618425769142926afa95317d90200
     Pseudo is Projector augmented-wave + core cor, Zval = 16.0
     Generated using "atomic" code by A. Dal Corso  v.5.0.99 svn rev. 10869
     Shape of augmentation charge: PSQ
     Using radial grid of 1191 points,  6 beta functions with: 
                l(1) =   0
                l(2) =   0
                l(3) =   1
                l(4) =   1
                l(5) =   2
                l(6) =   2
     Q(r) pseudized with 0 coefficients 


     PseudoPot. # 2 for Na read from file:
     /opt/QEpot/SSSP_precision_pseudos/Na_ONCV_PBE-1.0.oncvpsp.upf
     MD5 check sum: 24a298df0a6742ae313db96548fdb2a4
     Pseudo is Norm-conserving, Zval =  9.0
     Generated using ONCVPSP code by D. R. Hamann
     Using radial grid of 1992 points,  4 beta functions with: 
                l(1) =   0
                l(2) =   0
                l(3) =   1
                l(4) =   1

     PseudoPot. # 3 for O  read from file:
     /opt/QEpot/SSSP_precision_pseudos/O.pbe-n-kjpaw_psl.0.1.UPF
     MD5 check sum: 0234752ac141de4415c5fc33072bef88
     Pseudo is Projector augmented-wave + core cor, Zval =  6.0
     Generated using "atomic" code by A. Dal Corso  v.5.0.99 svn rev. 10869
     Shape of augmentation charge: BESSEL
     Using radial grid of 1095 points,  4 beta functions with: 
                l(1) =   0
                l(2) =   0
                l(3) =   1
                l(4) =   1
     Q(r) pseudized with 0 coefficients 


     PseudoPot. # 4 for P  read from file:
     /opt/QEpot/SSSP_precision_pseudos/P.pbe-n-rrkjus_psl.1.0.0.UPF
     MD5 check sum: 8b930f418f0a4573dca56cd030ffe088
     Pseudo is Ultrasoft + core correction, Zval =  5.0
     Generated using "atomic" code by A. Dal Corso  v.5.1
     Using radial grid of 1147 points,  6 beta functions with: 
                l(1) =   0
                l(2) =   0
                l(3) =   1
                l(4) =   1
                l(5) =   2
                l(6) =   2
     Q(r) pseudized with 0 coefficients 


     atomic species   valence    mass     pseudopotential
        Fe            16.00    55.84500     Fe( 1.00)
        Na             9.00    22.98977     Na( 1.00)
        O              6.00    15.99940     O ( 1.00)
        P              5.00    30.97376     P ( 1.00)

     Starting magnetic structure 
     atomic species   magnetization
        Fe           0.312
        Na           0.000
        O            0.000
        P            0.000

     No symmetry found


                                    s                        frac. trans.

      isym =  1     identity                                     

 cryst.   s( 1) = (     1          0          0      )
                  (     0          1          0      )
                  (     0          0          1      )

 cart.    s( 1) = (  1.0000000  0.0000000  0.0000000 )
                  (  0.0000000  1.0000000  0.0000000 )
                  (  0.0000000  0.0000000  1.0000000 )


   Cartesian axes

     site n.     atom                  positions (alat units)
         1           Na  tau(   1) = (   0.9908320   0.5356354   0.3847493  )
         2           Fe  tau(   2) = (   0.2986640   0.4600636   0.4010071  )
         3           Fe  tau(   3) = (   0.2176140   0.1809861   0.2253331  )
         4           Fe  tau(   4) = (   0.6993130   0.1376997   0.0561192  )
         5           Fe  tau(   5) = (   0.7827270   0.3981778   0.2195019  )
         6           P   tau(   6) = (   0.0964330   0.4188508   0.1447280  )
         7           P   tau(   7) = (   0.3931680   0.1503273   0.4302338  )
         8           P   tau(   8) = (   0.9083370   0.1933305   0.3210823  )
         9           P   tau(   9) = (   0.6077760   0.4480138   0.0162368  )
        10           O   tau(  10) = (   0.1605150   0.4345309   0.2759887  )
        11           O   tau(  11) = (   0.3515630   0.1480744   0.1019741  )
        12           O   tau(  12) = (   0.8284030   0.1978238   0.1945092  )
        13           O   tau(  13) = (   0.6540840   0.4478219   0.3459170  )
        14           O   tau(  14) = (   0.4610620   0.4592915   0.0266840  )
        15           O   tau(  15) = (   0.0466520   0.1415410   0.3054258  )
        16           O   tau(  16) = (   0.5400580   0.1412236   0.4183488  )
        17           O   tau(  17) = (   0.9523340   0.4615330   0.1510086  )
        18           O   tau(  18) = (   0.1650350   0.5123144   0.0513434  )
        19           O   tau(  19) = (   0.3242430   0.0432697   0.3484032  )
        20           O   tau(  20) = (   0.8958430   0.3332681   0.3690338  )
        21           O   tau(  21) = (   0.6568690   0.3248242   0.0901298  )
        22           O   tau(  22) = (   0.8385610   0.0970677   0.4107085  )
        23           O   tau(  23) = (   0.6777090   0.5527014   0.0997802  )
        24           O   tau(  24) = (   0.1168020   0.2790685   0.0994810  )
        25           O   tau(  25) = (   0.3354730   0.2712646   0.3571998  )

   Crystallographic axes

     site n.     atom                  positions (cryst. coord.)
         1           Na  tau(   1) = (  0.9908320  0.8963260  0.8228480  )
         2           Fe  tau(   2) = (  0.2986640  0.7698650  0.8576180  )
         3           Fe  tau(   3) = (  0.2176140  0.3028600  0.4819110  )
         4           Fe  tau(   4) = (  0.6993130  0.2304250  0.1200200  )
         5           Fe  tau(   5) = (  0.7827270  0.6663060  0.4694400  )
         6           P   tau(   6) = (  0.0964330  0.7009000  0.3095240  )
         7           P   tau(   7) = (  0.3931680  0.2515560  0.9201240  )
         8           P   tau(   8) = (  0.9083370  0.3235170  0.6866860  )
         9           P   tau(   9) = (  0.6077760  0.7497010  0.0347250  )
        10           O   tau(  10) = (  0.1605150  0.7271390  0.5902460  )
        11           O   tau(  11) = (  0.3515630  0.2477860  0.2180880  )
        12           O   tau(  12) = (  0.8284030  0.3310360  0.4159890  )
        13           O   tau(  13) = (  0.6540840  0.7493800  0.7397990  )
        14           O   tau(  14) = (  0.4610620  0.7685730  0.0570680  )
        15           O   tau(  15) = (  0.0466520  0.2368530  0.6532020  )
        16           O   tau(  16) = (  0.5400580  0.2363220  0.8947060  )
        17           O   tau(  17) = (  0.9523340  0.7723240  0.3229560  )
        18           O   tau(  18) = (  0.1650350  0.8573010  0.1098060  )
        19           O   tau(  19) = (  0.3242430  0.0724070  0.7451160  )
        20           O   tau(  20) = (  0.8958430  0.5576870  0.7892380  )
        21           O   tau(  21) = (  0.6568690  0.5435570  0.1927570  )
        22           O   tau(  22) = (  0.8385610  0.1624320  0.8783660  )
        23           O   tau(  23) = (  0.6777090  0.9248840  0.2133960  )
        24           O   tau(  24) = (  0.1168020  0.4669900  0.2127560  )
        25           O   tau(  25) = (  0.3354730  0.4539310  0.7639290  )

     number of k points=   158  Marzari-Vanderbilt smearing, width (Ry)=  0.0073
                       cart. coord. in units 2pi/alat
        k(    1) = (   0.0000000   0.0000000   0.0000000), wk =   0.0031746
        k(    2) = (   0.0000000   0.0000000   0.2376289), wk =   0.0063492
        k(    3) = (   0.0000000   0.0000000   0.4752578), wk =   0.0063492
        k(    4) = (   0.0000000   0.0000000   0.7128867), wk =   0.0063492
        k(    5) = (   0.0000000   0.0000000   0.9505157), wk =   0.0063492
        k(    6) = (   0.0000000   0.2390555   0.0000000), wk =   0.0063492
        k(    7) = (   0.0000000   0.2390555   0.2376289), wk =   0.0063492
        k(    8) = (   0.0000000   0.2390555   0.4752578), wk =   0.0063492
        k(    9) = (   0.0000000   0.2390555   0.7128867), wk =   0.0063492
        k(   10) = (   0.0000000   0.2390555   0.9505157), wk =   0.0063492
        k(   11) = (   0.0000000   0.4781110   0.0000000), wk =   0.0063492
        k(   12) = (   0.0000000   0.4781110   0.2376289), wk =   0.0063492
        k(   13) = (   0.0000000   0.4781110   0.4752578), wk =   0.0063492
        k(   14) = (   0.0000000   0.4781110   0.7128867), wk =   0.0063492
        k(   15) = (   0.0000000   0.4781110   0.9505157), wk =   0.0063492
        k(   16) = (   0.0000000   0.7171664   0.0000000), wk =   0.0063492
        k(   17) = (   0.0000000   0.7171664   0.2376289), wk =   0.0063492
        k(   18) = (   0.0000000   0.7171664   0.4752578), wk =   0.0063492
        k(   19) = (   0.0000000   0.7171664   0.7128867), wk =   0.0063492
        k(   20) = (   0.0000000   0.7171664   0.9505157), wk =   0.0063492
        k(   21) = (   0.2000000   0.0000000   0.0000000), wk =   0.0063492
        k(   22) = (   0.2000000   0.0000000   0.2376289), wk =   0.0063492
        k(   23) = (   0.2000000   0.0000000   0.4752578), wk =   0.0063492
        k(   24) = (   0.2000000   0.0000000   0.7128867), wk =   0.0063492
        k(   25) = (   0.2000000   0.0000000   0.9505157), wk =   0.0063492
        k(   26) = (   0.2000000   0.2390555   0.0000000), wk =   0.0063492
        k(   27) = (   0.2000000   0.2390555   0.2376289), wk =   0.0063492
        k(   28) = (   0.2000000   0.2390555   0.4752578), wk =   0.0063492
        k(   29) = (   0.2000000   0.2390555   0.7128867), wk =   0.0063492
        k(   30) = (   0.2000000   0.2390555   0.9505157), wk =   0.0063492
        k(   31) = (   0.2000000   0.4781110   0.0000000), wk =   0.0063492
        k(   32) = (   0.2000000   0.4781110   0.2376289), wk =   0.0063492
        k(   33) = (   0.2000000   0.4781110   0.4752578), wk =   0.0063492
        k(   34) = (   0.2000000   0.4781110   0.7128867), wk =   0.0063492
        k(   35) = (   0.2000000   0.4781110   0.9505157), wk =   0.0063492
        k(   36) = (   0.2000000   0.7171664   0.0000000), wk =   0.0063492
        k(   37) = (   0.2000000   0.7171664   0.2376289), wk =   0.0063492
        k(   38) = (   0.2000000   0.7171664   0.4752578), wk =   0.0063492
        k(   39) = (   0.2000000   0.7171664   0.7128867), wk =   0.0063492
        k(   40) = (   0.2000000   0.7171664   0.9505157), wk =   0.0063492
        k(   41) = (   0.4000000   0.0000000   0.0000000), wk =   0.0063492
        k(   42) = (   0.4000000   0.0000000   0.2376289), wk =   0.0063492
        k(   43) = (   0.4000000   0.0000000   0.4752578), wk =   0.0063492
        k(   44) = (   0.4000000   0.0000000   0.7128867), wk =   0.0063492
        k(   45) = (   0.4000000   0.0000000   0.9505157), wk =   0.0063492
        k(   46) = (   0.4000000   0.2390555   0.0000000), wk =   0.0063492
        k(   47) = (   0.4000000   0.2390555   0.2376289), wk =   0.0063492
        k(   48) = (   0.4000000   0.2390555   0.4752578), wk =   0.0063492
        k(   49) = (   0.4000000   0.2390555   0.7128867), wk =   0.0063492
        k(   50) = (   0.4000000   0.2390555   0.9505157), wk =   0.0063492
        k(   51) = (   0.4000000   0.4781110   0.0000000), wk =   0.0063492
        k(   52) = (   0.4000000   0.4781110   0.2376289), wk =   0.0063492
        k(   53) = (   0.4000000   0.4781110   0.4752578), wk =   0.0063492
        k(   54) = (   0.4000000   0.4781110   0.7128867), wk =   0.0063492
        k(   55) = (   0.4000000   0.4781110   0.9505157), wk =   0.0063492
        k(   56) = (   0.4000000   0.7171664   0.0000000), wk =   0.0063492
        k(   57) = (   0.4000000   0.7171664   0.2376289), wk =   0.0063492
        k(   58) = (   0.4000000   0.7171664   0.4752578), wk =   0.0063492
        k(   59) = (   0.4000000   0.7171664   0.7128867), wk =   0.0063492
        k(   60) = (   0.4000000   0.7171664   0.9505157), wk =   0.0063492
        k(   61) = (   0.0000000  -0.2390555   0.2376289), wk =   0.0063492
        k(   62) = (   0.0000000  -0.2390555   0.4752578), wk =   0.0063492
        k(   63) = (   0.0000000  -0.2390555   0.7128867), wk =   0.0063492
        k(   64) = (   0.0000000  -0.2390555   0.9505157), wk =   0.0063492
        k(   65) = (   0.0000000  -0.4781110   0.2376289), wk =   0.0063492
        k(   66) = (   0.0000000  -0.4781110   0.4752578), wk =   0.0063492
        k(   67) = (   0.0000000  -0.4781110   0.7128867), wk =   0.0063492
        k(   68) = (   0.0000000  -0.4781110   0.9505157), wk =   0.0063492
        k(   69) = (   0.0000000  -0.7171664   0.2376289), wk =   0.0063492
        k(   70) = (   0.0000000  -0.7171664   0.4752578), wk =   0.0063492
        k(   71) = (   0.0000000  -0.7171664   0.7128867), wk =   0.0063492
        k(   72) = (   0.0000000  -0.7171664   0.9505157), wk =   0.0063492
        k(   73) = (  -0.2000000   0.0000000   0.2376289), wk =   0.0063492
        k(   74) = (  -0.2000000   0.0000000   0.4752578), wk =   0.0063492
        k(   75) = (  -0.2000000   0.0000000   0.7128867), wk =   0.0063492
        k(   76) = (  -0.2000000   0.0000000   0.9505157), wk =   0.0063492
        k(   77) = (  -0.2000000   0.2390555   0.0000000), wk =   0.0063492
        k(   78) = (  -0.2000000  -0.2390555   0.2376289), wk =   0.0063492
        k(   79) = (  -0.2000000   0.2390555  -0.2376289), wk =   0.0063492
        k(   80) = (   0.2000000  -0.2390555  -0.2376289), wk =   0.0063492
        k(   81) = (  -0.2000000  -0.2390555   0.4752578), wk =   0.0063492
        k(   82) = (  -0.2000000   0.2390555  -0.4752578), wk =   0.0063492
        k(   83) = (   0.2000000  -0.2390555  -0.4752578), wk =   0.0063492
        k(   84) = (  -0.2000000  -0.2390555   0.7128867), wk =   0.0063492
        k(   85) = (  -0.2000000   0.2390555  -0.7128867), wk =   0.0063492
        k(   86) = (   0.2000000  -0.2390555  -0.7128867), wk =   0.0063492
        k(   87) = (  -0.2000000  -0.2390555   0.9505157), wk =   0.0063492
        k(   88) = (  -0.2000000   0.2390555  -0.9505157), wk =   0.0063492
        k(   89) = (   0.2000000  -0.2390555  -0.9505157), wk =   0.0063492
        k(   90) = (  -0.2000000   0.4781110   0.0000000), wk =   0.0063492
        k(   91) = (  -0.2000000  -0.4781110   0.2376289), wk =   0.0063492
        k(   92) = (  -0.2000000   0.4781110  -0.2376289), wk =   0.0063492
        k(   93) = (   0.2000000  -0.4781110  -0.2376289), wk =   0.0063492
        k(   94) = (  -0.2000000  -0.4781110   0.4752578), wk =   0.0063492
        k(   95) = (  -0.2000000   0.4781110  -0.4752578), wk =   0.0063492
        k(   96) = (   0.2000000  -0.4781110  -0.4752578), wk =   0.0063492
        k(   97) = (  -0.2000000  -0.4781110   0.7128867), wk =   0.0063492
        k(   98) = (  -0.2000000   0.4781110  -0.7128867), wk =   0.0063492
        k(   99) = (   0.2000000  -0.4781110  -0.7128867), wk =   0.0063492
        k(  100) = (  -0.2000000  -0.4781110   0.9505157), wk =   0.0063492
        k(  101) = (  -0.2000000   0.4781110  -0.9505157), wk =   0.0063492
        k(  102) = (   0.2000000  -0.4781110  -0.9505157), wk =   0.0063492
        k(  103) = (  -0.2000000   0.7171664   0.0000000), wk =   0.0063492
        k(  104) = (  -0.2000000  -0.7171664   0.2376289), wk =   0.0063492
        k(  105) = (  -0.2000000   0.7171664  -0.2376289), wk =   0.0063492
        k(  106) = (   0.2000000  -0.7171664  -0.2376289), wk =   0.0063492
        k(  107) = (  -0.2000000  -0.7171664   0.4752578), wk =   0.0063492
        k(  108) = (  -0.2000000   0.7171664  -0.4752578), wk =   0.0063492
        k(  109) = (   0.2000000  -0.7171664  -0.4752578), wk =   0.0063492
        k(  110) = (  -0.2000000  -0.7171664   0.7128867), wk =   0.0063492
        k(  111) = (  -0.2000000   0.7171664  -0.7128867), wk =   0.0063492
        k(  112) = (   0.2000000  -0.7171664  -0.7128867), wk =   0.0063492
        k(  113) = (  -0.2000000  -0.7171664   0.9505157), wk =   0.0063492
        k(  114) = (  -0.2000000   0.7171664  -0.9505157), wk =   0.0063492
        k(  115) = (   0.2000000  -0.7171664  -0.9505157), wk =   0.0063492
        k(  116) = (  -0.4000000   0.0000000   0.2376289), wk =   0.0063492
        k(  117) = (  -0.4000000   0.0000000   0.4752578), wk =   0.0063492
        k(  118) = (  -0.4000000   0.0000000   0.7128867), wk =   0.0063492
        k(  119) = (  -0.4000000   0.0000000   0.9505157), wk =   0.0063492
        k(  120) = (  -0.4000000   0.2390555   0.0000000), wk =   0.0063492
        k(  121) = (  -0.4000000  -0.2390555   0.2376289), wk =   0.0063492
        k(  122) = (  -0.4000000   0.2390555  -0.2376289), wk =   0.0063492
        k(  123) = (   0.4000000  -0.2390555  -0.2376289), wk =   0.0063492
        k(  124) = (  -0.4000000  -0.2390555   0.4752578), wk =   0.0063492
        k(  125) = (  -0.4000000   0.2390555  -0.4752578), wk =   0.0063492
        k(  126) = (   0.4000000  -0.2390555  -0.4752578), wk =   0.0063492
        k(  127) = (  -0.4000000  -0.2390555   0.7128867), wk =   0.0063492
        k(  128) = (  -0.4000000   0.2390555  -0.7128867), wk =   0.0063492
        k(  129) = (   0.4000000  -0.2390555  -0.7128867), wk =   0.0063492
        k(  130) = (  -0.4000000  -0.2390555   0.9505157), wk =   0.0063492
        k(  131) = (  -0.4000000   0.2390555  -0.9505157), wk =   0.0063492
        k(  132) = (   0.4000000  -0.2390555  -0.9505157), wk =   0.0063492
        k(  133) = (  -0.4000000   0.4781110   0.0000000), wk =   0.0063492
        k(  134) = (  -0.4000000  -0.4781110   0.2376289), wk =   0.0063492
        k(  135) = (  -0.4000000   0.4781110  -0.2376289), wk =   0.0063492
        k(  136) = (   0.4000000  -0.4781110  -0.2376289), wk =   0.0063492
        k(  137) = (  -0.4000000  -0.4781110   0.4752578), wk =   0.0063492
        k(  138) = (  -0.4000000   0.4781110  -0.4752578), wk =   0.0063492
        k(  139) = (   0.4000000  -0.4781110  -0.4752578), wk =   0.0063492
        k(  140) = (  -0.4000000  -0.4781110   0.7128867), wk =   0.0063492
        k(  141) = (  -0.4000000   0.4781110  -0.7128867), wk =   0.0063492
        k(  142) = (   0.4000000  -0.4781110  -0.7128867), wk =   0.0063492
        k(  143) = (  -0.4000000  -0.4781110   0.9505157), wk =   0.0063492
        k(  144) = (  -0.4000000   0.4781110  -0.9505157), wk =   0.0063492
        k(  145) = (   0.4000000  -0.4781110  -0.9505157), wk =   0.0063492
        k(  146) = (  -0.4000000   0.7171664   0.0000000), wk =   0.0063492
        k(  147) = (  -0.4000000  -0.7171664   0.2376289), wk =   0.0063492
        k(  148) = (  -0.4000000   0.7171664  -0.2376289), wk =   0.0063492
        k(  149) = (   0.4000000  -0.7171664  -0.2376289), wk =   0.0063492
        k(  150) = (  -0.4000000  -0.7171664   0.4752578), wk =   0.0063492
        k(  151) = (  -0.4000000   0.7171664  -0.4752578), wk =   0.0063492
        k(  152) = (   0.4000000  -0.7171664  -0.4752578), wk =   0.0063492
        k(  153) = (  -0.4000000  -0.7171664   0.7128867), wk =   0.0063492
        k(  154) = (  -0.4000000   0.7171664  -0.7128867), wk =   0.0063492
        k(  155) = (   0.4000000  -0.7171664  -0.7128867), wk =   0.0063492
        k(  156) = (  -0.4000000  -0.7171664   0.9505157), wk =   0.0063492
        k(  157) = (  -0.4000000   0.7171664  -0.9505157), wk =   0.0063492
        k(  158) = (   0.4000000  -0.7171664  -0.9505157), wk =   0.0063492

                       cryst. coord.
        k(    1) = (   0.0000000   0.0000000   0.0000000), wk =   0.0031746
        k(    2) = (   0.0000000   0.0000000   0.1111111), wk =   0.0063492
        k(    3) = (   0.0000000   0.0000000   0.2222222), wk =   0.0063492
        k(    4) = (   0.0000000   0.0000000   0.3333333), wk =   0.0063492
        k(    5) = (   0.0000000   0.0000000   0.4444444), wk =   0.0063492
        k(    6) = (   0.0000000   0.1428571   0.0000000), wk =   0.0063492
        k(    7) = (   0.0000000   0.1428571   0.1111111), wk =   0.0063492
        k(    8) = (   0.0000000   0.1428571   0.2222222), wk =   0.0063492
        k(    9) = (   0.0000000   0.1428571   0.3333333), wk =   0.0063492
        k(   10) = (   0.0000000   0.1428571   0.4444444), wk =   0.0063492
        k(   11) = (   0.0000000   0.2857143   0.0000000), wk =   0.0063492
        k(   12) = (   0.0000000   0.2857143   0.1111111), wk =   0.0063492
        k(   13) = (   0.0000000   0.2857143   0.2222222), wk =   0.0063492
        k(   14) = (   0.0000000   0.2857143   0.3333333), wk =   0.0063492
        k(   15) = (   0.0000000   0.2857143   0.4444444), wk =   0.0063492
        k(   16) = (   0.0000000   0.4285714   0.0000000), wk =   0.0063492
        k(   17) = (   0.0000000   0.4285714   0.1111111), wk =   0.0063492
        k(   18) = (   0.0000000   0.4285714   0.2222222), wk =   0.0063492
        k(   19) = (   0.0000000   0.4285714   0.3333333), wk =   0.0063492
        k(   20) = (   0.0000000   0.4285714   0.4444444), wk =   0.0063492
        k(   21) = (   0.2000000   0.0000000   0.0000000), wk =   0.0063492
        k(   22) = (   0.2000000   0.0000000   0.1111111), wk =   0.0063492
        k(   23) = (   0.2000000   0.0000000   0.2222222), wk =   0.0063492
        k(   24) = (   0.2000000   0.0000000   0.3333333), wk =   0.0063492
        k(   25) = (   0.2000000   0.0000000   0.4444444), wk =   0.0063492
        k(   26) = (   0.2000000   0.1428571   0.0000000), wk =   0.0063492
        k(   27) = (   0.2000000   0.1428571   0.1111111), wk =   0.0063492
        k(   28) = (   0.2000000   0.1428571   0.2222222), wk =   0.0063492
        k(   29) = (   0.2000000   0.1428571   0.3333333), wk =   0.0063492
        k(   30) = (   0.2000000   0.1428571   0.4444444), wk =   0.0063492
        k(   31) = (   0.2000000   0.2857143   0.0000000), wk =   0.0063492
        k(   32) = (   0.2000000   0.2857143   0.1111111), wk =   0.0063492
        k(   33) = (   0.2000000   0.2857143   0.2222222), wk =   0.0063492
        k(   34) = (   0.2000000   0.2857143   0.3333333), wk =   0.0063492
        k(   35) = (   0.2000000   0.2857143   0.4444444), wk =   0.0063492
        k(   36) = (   0.2000000   0.4285714   0.0000000), wk =   0.0063492
        k(   37) = (   0.2000000   0.4285714   0.1111111), wk =   0.0063492
        k(   38) = (   0.2000000   0.4285714   0.2222222), wk =   0.0063492
        k(   39) = (   0.2000000   0.4285714   0.3333333), wk =   0.0063492
        k(   40) = (   0.2000000   0.4285714   0.4444444), wk =   0.0063492
        k(   41) = (   0.4000000   0.0000000   0.0000000), wk =   0.0063492
        k(   42) = (   0.4000000   0.0000000   0.1111111), wk =   0.0063492
        k(   43) = (   0.4000000   0.0000000   0.2222222), wk =   0.0063492
        k(   44) = (   0.4000000   0.0000000   0.3333333), wk =   0.0063492
        k(   45) = (   0.4000000   0.0000000   0.4444444), wk =   0.0063492
        k(   46) = (   0.4000000   0.1428571   0.0000000), wk =   0.0063492
        k(   47) = (   0.4000000   0.1428571   0.1111111), wk =   0.0063492
        k(   48) = (   0.4000000   0.1428571   0.2222222), wk =   0.0063492
        k(   49) = (   0.4000000   0.1428571   0.3333333), wk =   0.0063492
        k(   50) = (   0.4000000   0.1428571   0.4444444), wk =   0.0063492
        k(   51) = (   0.4000000   0.2857143   0.0000000), wk =   0.0063492
        k(   52) = (   0.4000000   0.2857143   0.1111111), wk =   0.0063492
        k(   53) = (   0.4000000   0.2857143   0.2222222), wk =   0.0063492
        k(   54) = (   0.4000000   0.2857143   0.3333333), wk =   0.0063492
        k(   55) = (   0.4000000   0.2857143   0.4444444), wk =   0.0063492
        k(   56) = (   0.4000000   0.4285714   0.0000000), wk =   0.0063492
        k(   57) = (   0.4000000   0.4285714   0.1111111), wk =   0.0063492
        k(   58) = (   0.4000000   0.4285714   0.2222222), wk =   0.0063492
        k(   59) = (   0.4000000   0.4285714   0.3333333), wk =   0.0063492
        k(   60) = (   0.4000000   0.4285714   0.4444444), wk =   0.0063492
        k(   61) = (   0.0000000  -0.1428571   0.1111111), wk =   0.0063492
        k(   62) = (   0.0000000  -0.1428571   0.2222222), wk =   0.0063492
        k(   63) = (   0.0000000  -0.1428571   0.3333333), wk =   0.0063492
        k(   64) = (   0.0000000  -0.1428571   0.4444444), wk =   0.0063492
        k(   65) = (   0.0000000  -0.2857143   0.1111111), wk =   0.0063492
        k(   66) = (   0.0000000  -0.2857143   0.2222222), wk =   0.0063492
        k(   67) = (   0.0000000  -0.2857143   0.3333333), wk =   0.0063492
        k(   68) = (   0.0000000  -0.2857143   0.4444444), wk =   0.0063492
        k(   69) = (   0.0000000  -0.4285714   0.1111111), wk =   0.0063492
        k(   70) = (   0.0000000  -0.4285714   0.2222222), wk =   0.0063492
        k(   71) = (   0.0000000  -0.4285714   0.3333333), wk =   0.0063492
        k(   72) = (   0.0000000  -0.4285714   0.4444444), wk =   0.0063492
        k(   73) = (  -0.2000000   0.0000000   0.1111111), wk =   0.0063492
        k(   74) = (  -0.2000000   0.0000000   0.2222222), wk =   0.0063492
        k(   75) = (  -0.2000000   0.0000000   0.3333333), wk =   0.0063492
        k(   76) = (  -0.2000000   0.0000000   0.4444444), wk =   0.0063492
        k(   77) = (  -0.2000000   0.1428571   0.0000000), wk =   0.0063492
        k(   78) = (  -0.2000000  -0.1428571   0.1111111), wk =   0.0063492
        k(   79) = (  -0.2000000   0.1428571  -0.1111111), wk =   0.0063492
        k(   80) = (   0.2000000  -0.1428571  -0.1111111), wk =   0.0063492
        k(   81) = (  -0.2000000  -0.1428571   0.2222222), wk =   0.0063492
        k(   82) = (  -0.2000000   0.1428571  -0.2222222), wk =   0.0063492
        k(   83) = (   0.2000000  -0.1428571  -0.2222222), wk =   0.0063492
        k(   84) = (  -0.2000000  -0.1428571   0.3333333), wk =   0.0063492
        k(   85) = (  -0.2000000   0.1428571  -0.3333333), wk =   0.0063492
        k(   86) = (   0.2000000  -0.1428571  -0.3333333), wk =   0.0063492
        k(   87) = (  -0.2000000  -0.1428571   0.4444444), wk =   0.0063492
        k(   88) = (  -0.2000000   0.1428571  -0.4444444), wk =   0.0063492
        k(   89) = (   0.2000000  -0.1428571  -0.4444444), wk =   0.0063492
        k(   90) = (  -0.2000000   0.2857143   0.0000000), wk =   0.0063492
        k(   91) = (  -0.2000000  -0.2857143   0.1111111), wk =   0.0063492
        k(   92) = (  -0.2000000   0.2857143  -0.1111111), wk =   0.0063492
        k(   93) = (   0.2000000  -0.2857143  -0.1111111), wk =   0.0063492
        k(   94) = (  -0.2000000  -0.2857143   0.2222222), wk =   0.0063492
        k(   95) = (  -0.2000000   0.2857143  -0.2222222), wk =   0.0063492
        k(   96) = (   0.2000000  -0.2857143  -0.2222222), wk =   0.0063492
        k(   97) = (  -0.2000000  -0.2857143   0.3333333), wk =   0.0063492
        k(   98) = (  -0.2000000   0.2857143  -0.3333333), wk =   0.0063492
        k(   99) = (   0.2000000  -0.2857143  -0.3333333), wk =   0.0063492
        k(  100) = (  -0.2000000  -0.2857143   0.4444444), wk =   0.0063492
        k(  101) = (  -0.2000000   0.2857143  -0.4444444), wk =   0.0063492
        k(  102) = (   0.2000000  -0.2857143  -0.4444444), wk =   0.0063492
        k(  103) = (  -0.2000000   0.4285714   0.0000000), wk =   0.0063492
        k(  104) = (  -0.2000000  -0.4285714   0.1111111), wk =   0.0063492
        k(  105) = (  -0.2000000   0.4285714  -0.1111111), wk =   0.0063492
        k(  106) = (   0.2000000  -0.4285714  -0.1111111), wk =   0.0063492
        k(  107) = (  -0.2000000  -0.4285714   0.2222222), wk =   0.0063492
        k(  108) = (  -0.2000000   0.4285714  -0.2222222), wk =   0.0063492
        k(  109) = (   0.2000000  -0.4285714  -0.2222222), wk =   0.0063492
        k(  110) = (  -0.2000000  -0.4285714   0.3333333), wk =   0.0063492
        k(  111) = (  -0.2000000   0.4285714  -0.3333333), wk =   0.0063492
        k(  112) = (   0.2000000  -0.4285714  -0.3333333), wk =   0.0063492
        k(  113) = (  -0.2000000  -0.4285714   0.4444444), wk =   0.0063492
        k(  114) = (  -0.2000000   0.4285714  -0.4444444), wk =   0.0063492
        k(  115) = (   0.2000000  -0.4285714  -0.4444444), wk =   0.0063492
        k(  116) = (  -0.4000000   0.0000000   0.1111111), wk =   0.0063492
        k(  117) = (  -0.4000000   0.0000000   0.2222222), wk =   0.0063492
        k(  118) = (  -0.4000000   0.0000000   0.3333333), wk =   0.0063492
        k(  119) = (  -0.4000000   0.0000000   0.4444444), wk =   0.0063492
        k(  120) = (  -0.4000000   0.1428571   0.0000000), wk =   0.0063492
        k(  121) = (  -0.4000000  -0.1428571   0.1111111), wk =   0.0063492
        k(  122) = (  -0.4000000   0.1428571  -0.1111111), wk =   0.0063492
        k(  123) = (   0.4000000  -0.1428571  -0.1111111), wk =   0.0063492
        k(  124) = (  -0.4000000  -0.1428571   0.2222222), wk =   0.0063492
        k(  125) = (  -0.4000000   0.1428571  -0.2222222), wk =   0.0063492
        k(  126) = (   0.4000000  -0.1428571  -0.2222222), wk =   0.0063492
        k(  127) = (  -0.4000000  -0.1428571   0.3333333), wk =   0.0063492
        k(  128) = (  -0.4000000   0.1428571  -0.3333333), wk =   0.0063492
        k(  129) = (   0.4000000  -0.1428571  -0.3333333), wk =   0.0063492
        k(  130) = (  -0.4000000  -0.1428571   0.4444444), wk =   0.0063492
        k(  131) = (  -0.4000000   0.1428571  -0.4444444), wk =   0.0063492
        k(  132) = (   0.4000000  -0.1428571  -0.4444444), wk =   0.0063492
        k(  133) = (  -0.4000000   0.2857143   0.0000000), wk =   0.0063492
        k(  134) = (  -0.4000000  -0.2857143   0.1111111), wk =   0.0063492
        k(  135) = (  -0.4000000   0.2857143  -0.1111111), wk =   0.0063492
        k(  136) = (   0.4000000  -0.2857143  -0.1111111), wk =   0.0063492
        k(  137) = (  -0.4000000  -0.2857143   0.2222222), wk =   0.0063492
        k(  138) = (  -0.4000000   0.2857143  -0.2222222), wk =   0.0063492
        k(  139) = (   0.4000000  -0.2857143  -0.2222222), wk =   0.0063492
        k(  140) = (  -0.4000000  -0.2857143   0.3333333), wk =   0.0063492
        k(  141) = (  -0.4000000   0.2857143  -0.3333333), wk =   0.0063492
        k(  142) = (   0.4000000  -0.2857143  -0.3333333), wk =   0.0063492
        k(  143) = (  -0.4000000  -0.2857143   0.4444444), wk =   0.0063492
        k(  144) = (  -0.4000000   0.2857143  -0.4444444), wk =   0.0063492
        k(  145) = (   0.4000000  -0.2857143  -0.4444444), wk =   0.0063492
        k(  146) = (  -0.4000000   0.4285714   0.0000000), wk =   0.0063492
        k(  147) = (  -0.4000000  -0.4285714   0.1111111), wk =   0.0063492
        k(  148) = (  -0.4000000   0.4285714  -0.1111111), wk =   0.0063492
        k(  149) = (   0.4000000  -0.4285714  -0.1111111), wk =   0.0063492
        k(  150) = (  -0.4000000  -0.4285714   0.2222222), wk =   0.0063492
        k(  151) = (  -0.4000000   0.4285714  -0.2222222), wk =   0.0063492
        k(  152) = (   0.4000000  -0.4285714  -0.2222222), wk =   0.0063492
        k(  153) = (  -0.4000000  -0.4285714   0.3333333), wk =   0.0063492
        k(  154) = (  -0.4000000   0.4285714  -0.3333333), wk =   0.0063492
        k(  155) = (   0.4000000  -0.4285714  -0.3333333), wk =   0.0063492
        k(  156) = (  -0.4000000  -0.4285714   0.4444444), wk =   0.0063492
        k(  157) = (  -0.4000000   0.4285714  -0.4444444), wk =   0.0063492
        k(  158) = (   0.4000000  -0.4285714  -0.4444444), wk =   0.0063492

     Dense  grid:  1338317 G-vectors     FFT dimensions: ( 216, 125, 100)

     Smooth grid:   301689 G-vectors     FFT dimensions: ( 128,  80,  60)

     Dynamical RAM for                 wfc:       5.47 MB

     Dynamical RAM for     wfc (w. buffer):    1732.57 MB

     Dynamical RAM for           str. fact:       6.81 MB

     Dynamical RAM for           local pot:       0.00 MB

     Dynamical RAM for          nlocal pot:      13.42 MB

     Dynamical RAM for                qrad:      10.54 MB

     Dynamical RAM for          rho,v,vnew:      21.33 MB

     Dynamical RAM for               rhoin:       7.11 MB

     Dynamical RAM for            rho*nmix:      54.46 MB

     Dynamical RAM for           G-vectors:       6.57 MB

     Dynamical RAM for          h,s,v(r/c):       2.38 MB

     Dynamical RAM for          <psi|beta>:       0.49 MB

     Dynamical RAM for                 psi:      10.93 MB

     Dynamical RAM for                hpsi:      10.93 MB

     Dynamical RAM for                spsi:      10.93 MB

     Dynamical RAM for      wfcinit/wfcrot:      13.57 MB

     Dynamical RAM for           addusdens:     345.46 MB

     Dynamical RAM for          addusforce:     396.64 MB

     Dynamical RAM for         addusstress:     344.61 MB

     Estimated static dynamical RAM per process >       1.83 GB

     Estimated max dynamical RAM per process >       2.22 GB

     Estimated total dynamical RAM >      26.59 GB

     Check: negative core charge=   -0.000003
     Generating pointlists ...
     new r_m :   0.0758 (alat units)  1.5164 (a.u.) for type    1
     new r_m :   0.0912 (alat units)  1.8236 (a.u.) for type    2
     new r_m :   0.0600 (alat units)  1.1993 (a.u.) for type    3
     new r_m :   0.0600 (alat units)  1.1993 (a.u.) for type    4

     Initial potential from superposition of free atoms

     starting charge  188.99132, renormalised to  189.00000
     Starting wfcs are  137 randomized atomic wfcs
     Checking if some PAW data can be deallocated... 
       PAW data deallocated on   10 nodes for type:  1
       PAW data deallocated on    4 nodes for type:  3

     total cpu time spent up to now is     2542.7 secs

     Self-consistent Calculation

     iteration #  1     ecut=   100.00 Ry     beta= 0.40
     Davidson diagonalization with overlap
     ethr =  1.00E-02,  avg # of iterations =  3.0

     negative rho (up, down):  0.000E+00 1.210E-04

     total cpu time spent up to now is     9607.6 secs

     total energy              =   -2123.88407765 Ry
     estimated scf accuracy    <       6.96629916 Ry

     total magnetization       =    19.00 Bohr mag/cell
     absolute magnetization    =    19.00 Bohr mag/cell

     iteration #  2     ecut=   100.00 Ry     beta= 0.40
     Davidson diagonalization with overlap
     ethr =  3.69E-03,  avg # of iterations =  2.0

     negative rho (up, down):  0.000E+00 7.838E-05

     total cpu time spent up to now is    16317.1 secs

     total energy              =   -2121.48021611 Ry
     estimated scf accuracy    <      29.42448250 Ry

     total magnetization       =     8.07 Bohr mag/cell
     absolute magnetization    =     9.95 Bohr mag/cell

     iteration #  3     ecut=   100.00 Ry     beta= 0.40
     Davidson diagonalization with overlap
     ethr =  3.69E-03,  avg # of iterations =  2.1

     negative rho (up, down):  0.000E+00 6.562E-05

     total cpu time spent up to now is    21997.4 secs

     total energy              =   -2124.24087418 Ry
     estimated scf accuracy    <      39.03601053 Ry

     total magnetization       =     8.51 Bohr mag/cell
     absolute magnetization    =    10.02 Bohr mag/cell

     iteration #  4     ecut=   100.00 Ry     beta= 0.40
     Davidson diagonalization with overlap
     ethr =  3.69E-03,  avg # of iterations =  2.0

     negative rho (up, down):  0.000E+00 1.016E-04

     total cpu time spent up to now is    27589.5 secs

     total energy              =   -2125.39507327 Ry
     estimated scf accuracy    <      11.18572559 Ry

     total magnetization       =    15.14 Bohr mag/cell
     absolute magnetization    =    15.31 Bohr mag/cell

     iteration #  5     ecut=   100.00 Ry     beta= 0.40
     Davidson diagonalization with overlap
     ethr =  3.69E-03,  avg # of iterations =  1.5

     negative rho (up, down):  0.000E+00 1.462E-04

     total cpu time spent up to now is    32949.3 secs

     total energy              =   -2125.63525660 Ry
     estimated scf accuracy    <       9.38350750 Ry

     total magnetization       =    14.78 Bohr mag/cell
     absolute magnetization    =    15.03 Bohr mag/cell

     iteration #  6     ecut=   100.00 Ry     beta= 0.40
     Davidson diagonalization with overlap
     ethr =  3.69E-03,  avg # of iterations =  1.0

     negative rho (up, down):  0.000E+00 1.525E-04

     total cpu time spent up to now is    38190.6 secs

     total energy              =   -2125.77141375 Ry
     estimated scf accuracy    <       5.80764358 Ry

     total magnetization       =    15.93 Bohr mag/cell
     absolute magnetization    =    16.08 Bohr mag/cell

     iteration #  7     ecut=   100.00 Ry     beta= 0.40
     Davidson diagonalization with overlap
     ethr =  3.07E-03,  avg # of iterations =  1.0

     negative rho (up, down):  0.000E+00 2.680E-04

     total cpu time spent up to now is    43420.1 secs

     total energy              =   -2126.07392086 Ry
     estimated scf accuracy    <       0.84503217 Ry

     total magnetization       =    19.00 Bohr mag/cell
     absolute magnetization    =    19.00 Bohr mag/cell

     iteration #  8     ecut=   100.00 Ry     beta= 0.40
     Davidson diagonalization with overlap
     ethr =  4.47E-04,  avg # of iterations =  1.0

     negative rho (up, down):  0.000E+00 4.021E-04

     total cpu time spent up to now is    48688.2 secs

     total energy              =   -2126.06767001 Ry
     estimated scf accuracy    <       0.27420653 Ry

     total magnetization       =    19.00 Bohr mag/cell
     absolute magnetization    =    19.00 Bohr mag/cell

     iteration #  9     ecut=   100.00 Ry     beta= 0.40
     Davidson diagonalization with overlap
     c_bands:  1 eigenvalues not converged
     c_bands:  1 eigenvalues not converged
     ethr =  1.45E-04,  avg # of iterations =  6.3

     negative rho (up, down):  0.000E+00 7.137E-04

     total cpu time spent up to now is    54756.1 secs

     total energy              =   -2126.05883727 Ry
     estimated scf accuracy    <       0.30131581 Ry

     total magnetization       =    19.00 Bohr mag/cell
     absolute magnetization    =    19.01 Bohr mag/cell

     iteration # 10     ecut=   100.00 Ry     beta= 0.40
     Davidson diagonalization with overlap
     ethr =  1.45E-04,  avg # of iterations =  1.8

     negative rho (up, down):  0.000E+00 8.126E-04

     total cpu time spent up to now is    60192.2 secs

     total energy              =   -2126.08043906 Ry
     estimated scf accuracy    <       0.09206090 Ry

     total magnetization       =    19.00 Bohr mag/cell
     absolute magnetization    =    19.02 Bohr mag/cell

     iteration # 11     ecut=   100.00 Ry     beta= 0.40
     Davidson diagonalization with overlap
     c_bands:  1 eigenvalues not converged
     c_bands:  1 eigenvalues not converged
     c_bands:  1 eigenvalues not converged
     c_bands:  1 eigenvalues not converged
     c_bands:  1 eigenvalues not converged
     c_bands:  1 eigenvalues not converged
     c_bands:  1 eigenvalues not converged
     c_bands:  1 eigenvalues not converged
     c_bands:  1 eigenvalues not converged
     c_bands:  1 eigenvalues not converged
     c_bands:  1 eigenvalues not converged
     c_bands:  1 eigenvalues not converged
     c_bands:  1 eigenvalues not converged
     c_bands:  1 eigenvalues not converged
     ethr =  4.87E-05,  avg # of iterations = 10.8

     negative rho (up, down):  0.000E+00 8.736E-04

     total cpu time spent up to now is    67077.4 secs

     total energy              =   -2126.08309998 Ry
     estimated scf accuracy    <       0.08602965 Ry

     total magnetization       =    19.00 Bohr mag/cell
     absolute magnetization    =    19.02 Bohr mag/cell

     iteration # 12     ecut=   100.00 Ry     beta= 0.40
     Davidson diagonalization with overlap
     ethr =  4.55E-05,  avg # of iterations =  1.3

     negative rho (up, down):  0.000E+00 8.844E-04

     total cpu time spent up to now is    72392.7 secs

     total energy              =   -2126.08253202 Ry
     estimated scf accuracy    <       0.05932387 Ry

     total magnetization       =    19.00 Bohr mag/cell
     absolute magnetization    =    19.03 Bohr mag/cell

     iteration # 13     ecut=   100.00 Ry     beta= 0.40
     Davidson diagonalization with overlap
     c_bands:  2 eigenvalues not converged
     c_bands:  1 eigenvalues not converged
     ethr =  3.14E-05,  avg # of iterations =  1.6

     negative rho (up, down):  0.000E+00 8.857E-04

     total cpu time spent up to now is    77787.7 secs

     total energy              =   -2126.08395308 Ry
     estimated scf accuracy    <       0.02202642 Ry

     total magnetization       =    19.00 Bohr mag/cell
     absolute magnetization    =    19.04 Bohr mag/cell

     iteration # 14     ecut=   100.00 Ry     beta= 0.40
     Davidson diagonalization with overlap
     c_bands:  1 eigenvalues not converged
     c_bands:  1 eigenvalues not converged
     c_bands:  1 eigenvalues not converged
     c_bands:  1 eigenvalues not converged
     c_bands:  1 eigenvalues not converged
     c_bands:  1 eigenvalues not converged
     c_bands:  1 eigenvalues not converged
     ethr =  1.17E-05,  avg # of iterations =  5.7

     negative rho (up, down):  0.000E+00 8.733E-04

     total cpu time spent up to now is    83816.1 secs

     total energy              =   -2126.08348017 Ry
     estimated scf accuracy    <       0.01705571 Ry

     total magnetization       =    19.00 Bohr mag/cell
     absolute magnetization    =    19.04 Bohr mag/cell

     iteration # 15     ecut=   100.00 Ry     beta= 0.40
     Davidson diagonalization with overlap
     c_bands:  1 eigenvalues not converged
     c_bands:  1 eigenvalues not converged
     c_bands:  1 eigenvalues not converged
     c_bands:  1 eigenvalues not converged
     ethr =  9.02E-06,  avg # of iterations =  2.4

     negative rho (up, down):  0.000E+00 9.042E-04

     total cpu time spent up to now is    89377.0 secs

     total energy              =   -2126.08417753 Ry
     estimated scf accuracy    <       0.00386908 Ry

     total magnetization       =    19.00 Bohr mag/cell
     absolute magnetization    =    19.04 Bohr mag/cell

     iteration # 16     ecut=   100.00 Ry     beta= 0.40
     Davidson diagonalization with overlap
     c_bands:  1 eigenvalues not converged
     c_bands:  1 eigenvalues not converged
     c_bands:  1 eigenvalues not converged
     c_bands:  1 eigenvalues not converged
     c_bands:  1 eigenvalues not converged
     c_bands:  1 eigenvalues not converged
     c_bands:  1 eigenvalues not converged
     c_bands:  1 eigenvalues not converged
     c_bands:  1 eigenvalues not converged
     c_bands:  1 eigenvalues not converged
     c_bands:  1 eigenvalues not converged
     ethr =  2.05E-06,  avg # of iterations = 10.4

     negative rho (up, down):  0.000E+00 8.997E-04

     total cpu time spent up to now is    96520.6 secs

     total energy              =   -2126.08462417 Ry
     estimated scf accuracy    <       0.00132330 Ry

     total magnetization       =    19.00 Bohr mag/cell
     absolute magnetization    =    19.04 Bohr mag/cell

     iteration # 17     ecut=   100.00 Ry     beta= 0.40
     Davidson diagonalization with overlap
     ethr =  7.00E-07,  avg # of iterations =  2.8

     negative rho (up, down):  0.000E+00 8.964E-04

     total cpu time spent up to now is   102413.1 secs

     total energy              =   -2126.08475825 Ry
     estimated scf accuracy    <       0.00048534 Ry

     total magnetization       =    19.00 Bohr mag/cell
     absolute magnetization    =    19.04 Bohr mag/cell

     iteration # 18     ecut=   100.00 Ry     beta= 0.40
     Davidson diagonalization with overlap
     ethr =  2.57E-07,  avg # of iterations =  3.1

     negative rho (up, down):  0.000E+00 8.937E-04

     total cpu time spent up to now is   108420.1 secs

     total energy              =   -2126.08477914 Ry
     estimated scf accuracy    <       0.00159660 Ry

     total magnetization       =    19.00 Bohr mag/cell
     absolute magnetization    =    19.05 Bohr mag/cell

     iteration # 19     ecut=   100.00 Ry     beta= 0.40
     Davidson diagonalization with overlap
     ethr =  2.57E-07,  avg # of iterations =  1.1

     negative rho (up, down):  0.000E+00 8.926E-04

     total cpu time spent up to now is   113710.1 secs

     total energy              =   -2126.08483570 Ry
     estimated scf accuracy    <       0.00020864 Ry

     total magnetization       =    19.00 Bohr mag/cell
     absolute magnetization    =    19.05 Bohr mag/cell

     iteration # 20     ecut=   100.00 Ry     beta= 0.40
     Davidson diagonalization with overlap
     ethr =  1.10E-07,  avg # of iterations =  1.7

     negative rho (up, down):  0.000E+00 8.895E-04

     total cpu time spent up to now is   119222.2 secs

     total energy              =   -2126.08485328 Ry
     estimated scf accuracy    <       0.00012545 Ry

     total magnetization       =    19.00 Bohr mag/cell
     absolute magnetization    =    19.05 Bohr mag/cell

     iteration # 21     ecut=   100.00 Ry     beta= 0.40
     Davidson diagonalization with overlap
     ethr =  6.64E-08,  avg # of iterations =  1.8

     negative rho (up, down):  0.000E+00 8.884E-04

     total cpu time spent up to now is   124744.5 secs

     total energy              =   -2126.08486308 Ry
     estimated scf accuracy    <       0.00003548 Ry

     total magnetization       =    19.00 Bohr mag/cell
     absolute magnetization    =    19.05 Bohr mag/cell

     iteration # 22     ecut=   100.00 Ry     beta= 0.40
     Davidson diagonalization with overlap
     ethr =  1.88E-08,  avg # of iterations =  4.1

     negative rho (up, down):  0.000E+00 8.871E-04

     total cpu time spent up to now is   132554.6 secs

     total energy              =   -2126.08487446 Ry
     estimated scf accuracy    <       0.00000329 Ry

     total magnetization       =    19.00 Bohr mag/cell
     absolute magnetization    =    19.05 Bohr mag/cell

     iteration # 23     ecut=   100.00 Ry     beta= 0.40
     Davidson diagonalization with overlap
     ethr =  1.74E-09,  avg # of iterations =  2.2

     negative rho (up, down):  0.000E+00 8.869E-04

     total cpu time spent up to now is   138365.9 secs

     total energy              =   -2126.08487508 Ry
     estimated scf accuracy    <       0.00000127 Ry

     total magnetization       =    19.00 Bohr mag/cell
     absolute magnetization    =    19.05 Bohr mag/cell

     iteration # 24     ecut=   100.00 Ry     beta= 0.40
     Davidson diagonalization with overlap
     ethr =  6.74E-10,  avg # of iterations =  2.2

     negative rho (up, down):  0.000E+00 8.867E-04

     total cpu time spent up to now is   144056.9 secs

     total energy              =   -2126.08487531 Ry
     estimated scf accuracy    <       0.00000065 Ry

     total magnetization       =    19.00 Bohr mag/cell
     absolute magnetization    =    19.05 Bohr mag/cell

     iteration # 25     ecut=   100.00 Ry     beta= 0.40
     Davidson diagonalization with overlap
     ethr =  3.45E-10,  avg # of iterations =  2.9

     negative rho (up, down):  0.000E+00 8.872E-04

     total cpu time spent up to now is   150481.6 secs

     total energy              =   -2126.08487565 Ry
     estimated scf accuracy    <       0.00000109 Ry

     total magnetization       =    19.00 Bohr mag/cell
     absolute magnetization    =    19.05 Bohr mag/cell

     iteration # 26     ecut=   100.00 Ry     beta= 0.40
     Davidson diagonalization with overlap
     ethr =  3.45E-10,  avg # of iterations =  1.0

     negative rho (up, down):  0.000E+00 8.874E-04

     total cpu time spent up to now is   155776.5 secs

     total energy              =   -2126.08487570 Ry
     estimated scf accuracy    <       0.00000021 Ry

     total magnetization       =    19.00 Bohr mag/cell
     absolute magnetization    =    19.05 Bohr mag/cell

     iteration # 27     ecut=   100.00 Ry     beta= 0.40
     Davidson diagonalization with overlap
     ethr =  1.10E-10,  avg # of iterations =  2.8

     negative rho (up, down):  0.000E+00 8.875E-04

     total cpu time spent up to now is   161966.2 secs

     total energy              =   -2126.08487575 Ry
     estimated scf accuracy    <       0.00000002 Ry

     total magnetization       =    19.00 Bohr mag/cell
     absolute magnetization    =    19.05 Bohr mag/cell

     iteration # 28     ecut=   100.00 Ry     beta= 0.40
     Davidson diagonalization with overlap
     ethr =  1.19E-11,  avg # of iterations =  3.9

     negative rho (up, down):  0.000E+00 8.875E-04

     total cpu time spent up to now is   168977.8 secs

     total energy              =   -2126.08487577 Ry
     estimated scf accuracy    <       0.00000002 Ry

     total magnetization       =    19.00 Bohr mag/cell
     absolute magnetization    =    19.05 Bohr mag/cell

     iteration # 29     ecut=   100.00 Ry     beta= 0.40
     Davidson diagonalization with overlap
     ethr =  1.11E-11,  avg # of iterations =  2.0

     negative rho (up, down):  0.000E+00 8.875E-04

     total cpu time spent up to now is   174657.2 secs

     total energy              =   -2126.08487577 Ry
     estimated scf accuracy    <          8.7E-09 Ry

     total magnetization       =    19.00 Bohr mag/cell
     absolute magnetization    =    19.05 Bohr mag/cell

     iteration # 30     ecut=   100.00 Ry     beta= 0.40
     Davidson diagonalization with overlap
     ethr =  4.62E-12,  avg # of iterations =  2.0

     negative rho (up, down):  0.000E+00 8.875E-04

     total cpu time spent up to now is   180509.7 secs

     total energy              =   -2126.08487578 Ry
     estimated scf accuracy    <          2.9E-09 Ry

     total magnetization       =    19.00 Bohr mag/cell
     absolute magnetization    =    19.05 Bohr mag/cell

     iteration # 31     ecut=   100.00 Ry     beta= 0.40
     Davidson diagonalization with overlap
     ethr =  1.54E-12,  avg # of iterations =  2.5

     negative rho (up, down):  0.000E+00 8.875E-04

     total cpu time spent up to now is   186269.9 secs

     total energy              =   -2126.08487578 Ry
     estimated scf accuracy    <          7.3E-09 Ry

     total magnetization       =    19.00 Bohr mag/cell
     absolute magnetization    =    19.05 Bohr mag/cell

     iteration # 32     ecut=   100.00 Ry     beta= 0.40
     Davidson diagonalization with overlap
     ethr =  1.54E-12,  avg # of iterations =  2.0

     negative rho (up, down):  0.000E+00 8.875E-04

     total cpu time spent up to now is   191843.1 secs

     total energy              =   -2126.08487578 Ry
     estimated scf accuracy    <       0.00000001 Ry

     total magnetization       =    19.00 Bohr mag/cell
     absolute magnetization    =    19.05 Bohr mag/cell

     iteration # 33     ecut=   100.00 Ry     beta= 0.40
     Davidson diagonalization with overlap
     ethr =  1.54E-12,  avg # of iterations =  2.0

     negative rho (up, down):  0.000E+00 8.875E-04

     total cpu time spent up to now is   197419.1 secs

     total energy              =   -2126.08487578 Ry
     estimated scf accuracy    <          3.4E-09 Ry

     total magnetization       =    19.00 Bohr mag/cell
     absolute magnetization    =    19.05 Bohr mag/cell

     iteration # 34     ecut=   100.00 Ry     beta= 0.40
     Davidson diagonalization with overlap
     ethr =  1.54E-12,  avg # of iterations =  1.0

     negative rho (up, down):  0.000E+00 8.875E-04

     total cpu time spent up to now is   202721.3 secs

     total energy              =   -2126.08487578 Ry
     estimated scf accuracy    <          3.2E-10 Ry

     total magnetization       =    19.00 Bohr mag/cell
     absolute magnetization    =    19.05 Bohr mag/cell

     iteration # 35     ecut=   100.00 Ry     beta= 0.40
     Davidson diagonalization with overlap
     ethr =  1.69E-13,  avg # of iterations =  3.5

     negative rho (up, down):  0.000E+00 8.875E-04

     total cpu time spent up to now is   208823.6 secs

     total energy              =   -2126.08487578 Ry
     estimated scf accuracy    <          4.0E-10 Ry

     total magnetization       =    19.00 Bohr mag/cell
     absolute magnetization    =    19.05 Bohr mag/cell

     iteration # 36     ecut=   100.00 Ry     beta= 0.40
     Davidson diagonalization with overlap
     ethr =  1.69E-13,  avg # of iterations =  1.0

     negative rho (up, down):  0.000E+00 8.875E-04

     Magnetic moment per site:
     atom:    1    charge:    7.9636    magn:    0.0015    constr:    0.0000
     atom:    2    charge:   12.9244    magn:    3.6743    constr:    0.0000
     atom:    3    charge:   12.9439    magn:    3.5996    constr:    0.0000
     atom:    4    charge:   12.9365    magn:    3.6320    constr:    0.0000
     atom:    5    charge:   12.9312    magn:    3.6457    constr:    0.0000
     atom:    6    charge:    0.8421    magn:    0.0112    constr:    0.0000
     atom:    7    charge:    0.8323    magn:    0.0116    constr:    0.0000
     atom:    8    charge:    0.8384    magn:    0.0092    constr:    0.0000
     atom:    9    charge:    0.8336    magn:    0.0115    constr:    0.0000
     atom:   10    charge:    4.2729    magn:    0.1111    constr:    0.0000
     atom:   11    charge:    4.2631    magn:    0.1096    constr:    0.0000
     atom:   12    charge:    4.2436    magn:    0.1591    constr:    0.0000
     atom:   13    charge:    4.2585    magn:    0.1119    constr:    0.0000
     atom:   14    charge:    4.2443    magn:    0.1247    constr:    0.0000
     atom:   15    charge:    4.2434    magn:    0.0889    constr:    0.0000
     atom:   16    charge:    4.2385    magn:    0.1174    constr:    0.0000
     atom:   17    charge:    4.2315    magn:    0.1049    constr:    0.0000
     atom:   18    charge:    4.2539    magn:    0.1307    constr:    0.0000
     atom:   19    charge:    4.2384    magn:    0.1457    constr:    0.0000
     atom:   20    charge:    4.2392    magn:    0.1150    constr:    0.0000
     atom:   21    charge:    4.2480    magn:    0.1580    constr:    0.0000
     atom:   22    charge:    4.2562    magn:    0.1261    constr:    0.0000
     atom:   23    charge:    4.2353    magn:    0.1431    constr:    0.0000
     atom:   24    charge:    4.2380    magn:    0.1126    constr:    0.0000
     atom:   25    charge:    4.2346    magn:    0.1504    constr:    0.0000

     total cpu time spent up to now is   214143.9 secs

     End of self-consistent calculation

 ------ SPIN UP ------------


          k = 0.0000 0.0000 0.0000 ( 37649 PWs)   bands (ev):

   -85.6882 -85.6430 -85.4744 -85.2774 -51.7733 -51.7606 -51.7107 -51.6739
   -51.5975 -51.5911 -51.5478 -51.4854 -51.4313 -51.2713 -51.2557 -51.0932
   -44.8284 -16.9024 -16.8165 -16.7975 -16.4435 -16.2466 -16.1664 -16.0086
   -14.1664 -14.0310 -13.9658 -13.8585 -13.8438 -13.7962 -13.7774 -13.7217
   -13.6874 -13.6124 -13.5960 -13.5188  -4.6760  -4.2228  -3.9811  -3.7694
    -2.5511  -2.4147  -2.1706  -2.1002  -1.7664  -1.6524  -1.5179  -1.4915
    -1.4027  -1.3796  -1.2622  -1.1446  -0.4885  -0.3878  -0.2056   0.0249
     0.0394   0.1231   0.2424   0.3426   0.3587   0.4155   0.4611   0.5346
     0.7777   0.9651   1.0060   1.1029   1.2508   1.3555   1.4019   1.5726
     1.6412   1.7088   1.7536   1.7736   1.9235   1.9919   2.0125   2.0984
     2.2175   2.3355   2.4057   2.4885   2.5685   2.6225   2.7265   2.8325
     3.0162   3.0709   3.1626   3.2125   3.3018   3.3321   3.5007   3.5311
     3.5774   3.6155   3.7529   3.8518   3.8665   3.9794   4.2568   4.5629
     8.4893  10.3887  10.7735  11.2604  11.6241  12.4943  12.6816  12.6986
    12.7991  12.8203

     occupation numbers 
     1.0000   1.0000   1.0000   1.0000   1.0000   1.0000   1.0000   1.0000
     1.0000   1.0000   1.0000   1.0000   1.0000   1.0000   1.0000   1.0000
     1.0000   1.0000   1.0000   1.0000   1.0000   1.0000   1.0000   1.0000
     1.0000   1.0000   1.0000   1.0000   1.0000   1.0000   1.0000   1.0000
     1.0000   1.0000   1.0000   1.0000   1.0000   1.0000   1.0000   1.0000
     1.0000   1.0000   1.0000   1.0000   1.0000   1.0000   1.0000   1.0000
     1.0000   1.0000   1.0000   1.0000   1.0000   1.0000   1.0000   1.0000
     1.0000   1.0000   1.0000   1.0000   1.0000   1.0000   1.0000   1.0000
     1.0000   1.0000   1.0000   1.0000   1.0000   1.0000   1.0000   1.0000
     1.0000   1.0000   1.0000   1.0000   1.0000   1.0000   1.0000   1.0000
     1.0000   1.0000   1.0000   1.0000   1.0000   1.0000   1.0000   1.0000
     1.0000   1.0000   1.0000   1.0000   1.0000   1.0000   1.0000   1.0000
     1.0000   1.0000   1.0000   1.0000   1.0000   1.0000   1.0000   1.0000
     0.0000   0.0000   0.0000   0.0000   0.0000   0.0000   0.0000   0.0000
     0.0000   0.0000

          k = 0.0000 0.0000 0.2376 ( 37659 PWs)   bands (ev):

   -85.6882 -85.6430 -85.4744 -85.2774 -51.7733 -51.7606 -51.7107 -51.6739
   -51.5975 -51.5911 -51.5478 -51.4854 -51.4313 -51.2713 -51.2557 -51.0932
   -44.8284 -16.9031 -16.8198 -16.7979 -16.4283 -16.2401 -16.1567 -16.0061
   -14.1804 -14.0353 -13.9824 -13.8625 -13.8377 -13.8094 -13.7774 -13.7206
   -13.6970 -13.6126 -13.5964 -13.5177  -4.6454  -4.2077  -3.9773  -3.7573
    -2.5370  -2.4054  -2.1787  -2.0672  -1.7685  -1.6526  -1.5217  -1.4829
    -1.3970  -1.3595  -1.2974  -1.1181  -0.4748  -0.3730  -0.2099   0.0059
     0.0371   0.1466   0.2137   0.2844   0.3880   0.4333   0.4775   0.5394
     0.7537   0.9418   1.0299   1.1096   1.2338   1.3402   1.4334   1.5624
     1.6321   1.7035   1.7456   1.7919   1.8706   1.9741   1.9983   2.1320
     2.1968   2.3302   2.4100   2.4675   2.5601   2.5863   2.7342   2.8384
     2.9901   3.0799   3.1584   3.2211   3.2829   3.3246   3.4760   3.5192
     3.5887   3.6445   3.7406   3.8466   3.8766   3.9804   4.2565   4.5564
     8.6314  10.4558  10.8202  11.2918  11.6618  12.4322  12.5899  12.6770
    12.7274  12.7736

     occupation numbers 
     1.0000   1.0000   1.0000   1.0000   1.0000   1.0000   1.0000   1.0000
     1.0000   1.0000   1.0000   1.0000   1.0000   1.0000   1.0000   1.0000
     1.0000   1.0000   1.0000   1.0000   1.0000   1.0000   1.0000   1.0000
     1.0000   1.0000   1.0000   1.0000   1.0000   1.0000   1.0000   1.0000
     1.0000   1.0000   1.0000   1.0000   1.0000   1.0000   1.0000   1.0000
     1.0000   1.0000   1.0000   1.0000   1.0000   1.0000   1.0000   1.0000
     1.0000   1.0000   1.0000   1.0000   1.0000   1.0000   1.0000   1.0000
     1.0000   1.0000   1.0000   1.0000   1.0000   1.0000   1.0000   1.0000
     1.0000   1.0000   1.0000   1.0000   1.0000   1.0000   1.0000   1.0000
     1.0000   1.0000   1.0000   1.0000   1.0000   1.0000   1.0000   1.0000
     1.0000   1.0000   1.0000   1.0000   1.0000   1.0000   1.0000   1.0000
     1.0000   1.0000   1.0000   1.0000   1.0000   1.0000   1.0000   1.0000
     1.0000   1.0000   1.0000   1.0000   1.0000   1.0000   1.0000   1.0000
     0.0000   0.0000   0.0000   0.0000   0.0000   0.0000   0.0000   0.0000
     0.0000   0.0000

          k = 0.0000 0.0000 0.4753 ( 37654 PWs)   bands (ev):

   -85.6882 -85.6430 -85.4744 -85.2774 -51.7733 -51.7606 -51.7107 -51.6739
   -51.5975 -51.5911 -51.5478 -51.4854 -51.4313 -51.2713 -51.2557 -51.0932
   -44.8284 -16.9056 -16.8271 -16.7979 -16.3888 -16.2240 -16.1306 -16.0016
   -14.2160 -14.0555 -14.0127 -13.8793 -13.8499 -13.8143 -13.7789 -13.7235
   -13.7043 -13.6166 -13.5981 -13.5171  -4.5648  -4.1666  -3.9653  -3.7409
    -2.5159  -2.3671  -2.1542  -2.0253  -1.7764  -1.6559  -1.5345  -1.4658
    -1.3800  -1.3429  -1.2927  -1.0960  -0.4549  -0.3286  -0.1951  -0.0330
     0.0338   0.1409   0.2106   0.2687   0.3756   0.4554   0.4991   0.5828
     0.7154   0.9219   0.9992   1.1232   1.2168   1.3113   1.4350   1.5230
     1.6046   1.6603   1.7130   1.7793   1.8261   1.9534   2.0056   2.1089
     2.1967   2.3128   2.3643   2.4057   2.4662   2.5963   2.7701   2.8469
     2.9470   3.0963   3.1577   3.2182   3.2769   3.3057   3.4729   3.5065
     3.5797   3.6785   3.7399   3.8374   3.8969   3.9762   4.2577   4.5415
     9.0140  10.6258  10.9208  11.3842  11.7593  12.1657  12.4416  12.5515
    12.6744  12.7466

     occupation numbers 
     1.0000   1.0000   1.0000   1.0000   1.0000   1.0000   1.0000   1.0000
     1.0000   1.0000   1.0000   1.0000   1.0000   1.0000   1.0000   1.0000
     1.0000   1.0000   1.0000   1.0000   1.0000   1.0000   1.0000   1.0000
     1.0000   1.0000   1.0000   1.0000   1.0000   1.0000   1.0000   1.0000
     1.0000   1.0000   1.0000   1.0000   1.0000   1.0000   1.0000   1.0000
     1.0000   1.0000   1.0000   1.0000   1.0000   1.0000   1.0000   1.0000
     1.0000   1.0000   1.0000   1.0000   1.0000   1.0000   1.0000   1.0000
     1.0000   1.0000   1.0000   1.0000   1.0000   1.0000   1.0000   1.0000
     1.0000   1.0000   1.0000   1.0000   1.0000   1.0000   1.0000   1.0000
     1.0000   1.0000   1.0000   1.0000   1.0000   1.0000   1.0000   1.0000
     1.0000   1.0000   1.0000   1.0000   1.0000   1.0000   1.0000   1.0000
     1.0000   1.0000   1.0000   1.0000   1.0000   1.0000   1.0000   1.0000
     1.0000   1.0000   1.0000   1.0000   1.0000   1.0000   1.0000   1.0000
     0.0000   0.0000   0.0000   0.0000   0.0000   0.0000   0.0000   0.0000
     0.0000   0.0000

          k = 0.0000 0.0000 0.7129 ( 37702 PWs)   bands (ev):

   -85.6882 -85.6430 -85.4744 -85.2774 -51.7733 -51.7606 -51.7107 -51.6739
   -51.5975 -51.5911 -51.5478 -51.4854 -51.4313 -51.2713 -51.2557 -51.0932
   -44.8284 -16.9098 -16.8334 -16.7974 -16.3410 -16.2067 -16.0975 -16.0007
   -14.2560 -14.0982 -14.0282 -13.9055 -13.8876 -13.8020 -13.7758 -13.7267
   -13.6991 -13.6216 -13.6027 -13.5204  -4.4661  -4.1132  -3.9499  -3.7478
    -2.5089  -2.3076  -2.0895  -2.0061  -1.7903  -1.6575  -1.5684  -1.4627
    -1.3565  -1.2988  -1.2412  -1.1075  -0.4553  -0.2677  -0.1257  -0.0726
     0.0519   0.1419   0.2135   0.3021   0.4008   0.4894   0.5241   0.5922
     0.7059   0.8863   0.9322   1.1026   1.1847   1.2626   1.3544   1.4064
     1.4931   1.6022   1.7466   1.7954   1.8387   1.9155   1.9452   2.0957
     2.1966   2.2378   2.2636   2.3614   2.4383   2.6418   2.8058   2.8446
     2.9299   3.1071   3.1267   3.1984   3.3161   3.3437   3.4642   3.5204
     3.5643   3.6741   3.7740   3.8341   3.9113   3.9676   4.2618   4.5253
     9.5421  10.7853  11.0153  11.4818  11.6675  12.0738  12.2882  12.3933
    12.5659  12.6788

     occupation numbers 
     1.0000   1.0000   1.0000   1.0000   1.0000   1.0000   1.0000   1.0000
     1.0000   1.0000   1.0000   1.0000   1.0000   1.0000   1.0000   1.0000
     1.0000   1.0000   1.0000   1.0000   1.0000   1.0000   1.0000   1.0000
     1.0000   1.0000   1.0000   1.0000   1.0000   1.0000   1.0000   1.0000
     1.0000   1.0000   1.0000   1.0000   1.0000   1.0000   1.0000   1.0000
     1.0000   1.0000   1.0000   1.0000   1.0000   1.0000   1.0000   1.0000
     1.0000   1.0000   1.0000   1.0000   1.0000   1.0000   1.0000   1.0000
     1.0000   1.0000   1.0000   1.0000   1.0000   1.0000   1.0000   1.0000
     1.0000   1.0000   1.0000   1.0000   1.0000   1.0000   1.0000   1.0000
     1.0000   1.0000   1.0000   1.0000   1.0000   1.0000   1.0000   1.0000
     1.0000   1.0000   1.0000   1.0000   1.0000   1.0000   1.0000   1.0000
     1.0000   1.0000   1.0000   1.0000   1.0000   1.0000   1.0000   1.0000
     1.0000   1.0000   1.0000   1.0000   1.0000   1.0000   1.0000   1.0000
     0.0000   0.0000   0.0000   0.0000   0.0000   0.0000   0.0000   0.0000
     0.0000   0.0000

          k = 0.0000 0.0000 0.9505 ( 37742 PWs)   bands (ev):

   -85.6882 -85.6430 -85.4744 -85.2774 -51.7733 -51.7606 -51.7107 -51.6739
   -51.5975 -51.5911 -51.5478 -51.4854 -51.4313 -51.2713 -51.2557 -51.0932
   -44.8284 -16.9133 -16.8363 -16.7969 -16.3068 -16.1965 -16.0714 -16.0056
   -14.2814 -14.1306 -14.0356 -13.9313 -13.9056 -13.7979 -13.7708 -13.7258
   -13.6918 -13.6233 -13.6091 -13.5247  -4.3957  -4.0731  -3.9364  -3.7724
    -2.5065  -2.2684  -2.0309  -2.0029  -1.7994  -1.6595  -1.6049  -1.4505
    -1.3207  -1.2636  -1.2250  -1.1241  -0.4597  -0.2148  -0.1142  -0.0504
     0.0942   0.1530   0.2759   0.3579   0.4217   0.5004   0.5393   0.6055
     0.7187   0.7959   0.8352   1.0670   1.1121   1.1763   1.3151   1.3966
     1.4460   1.5187   1.6881   1.7824   1.8754   1.9136   1.9224   2.1006
     2.1371   2.1901   2.2694   2.3216   2.4437   2.6749   2.8013   2.8311
     2.9606   3.0596   3.1469   3.2121   3.3205   3.3985   3.4532   3.5120
     3.5703   3.6739   3.7893   3.8514   3.9105   3.9619   4.2668   4.5132
    10.1075  10.6549  11.1191  11.3174  11.6599  12.1706  12.2358  12.3689
    12.4714  12.5311

     occupation numbers 
     1.0000   1.0000   1.0000   1.0000   1.0000   1.0000   1.0000   1.0000
     1.0000   1.0000   1.0000   1.0000   1.0000   1.0000   1.0000   1.0000
     1.0000   1.0000   1.0000   1.0000   1.0000   1.0000   1.0000   1.0000
     1.0000   1.0000   1.0000   1.0000   1.0000   1.0000   1.0000   1.0000
     1.0000   1.0000   1.0000   1.0000   1.0000   1.0000   1.0000   1.0000
     1.0000   1.0000   1.0000   1.0000   1.0000   1.0000   1.0000   1.0000
     1.0000   1.0000   1.0000   1.0000   1.0000   1.0000   1.0000   1.0000
     1.0000   1.0000   1.0000   1.0000   1.0000   1.0000   1.0000   1.0000
     1.0000   1.0000   1.0000   1.0000   1.0000   1.0000   1.0000   1.0000
     1.0000   1.0000   1.0000   1.0000   1.0000   1.0000   1.0000   1.0000
     1.0000   1.0000   1.0000   1.0000   1.0000   1.0000   1.0000   1.0000
     1.0000   1.0000   1.0000   1.0000   1.0000   1.0000   1.0000   1.0000
     1.0000   1.0000   1.0000   1.0000   1.0000   1.0000   1.0000   1.0000
     0.0000   0.0000   0.0000   0.0000   0.0000   0.0000   0.0000   0.0000
     0.0000   0.0000

          k = 0.0000 0.2391 0.0000 ( 37676 PWs)   bands (ev):

   -85.6882 -85.6430 -85.4744 -85.2774 -51.7733 -51.7606 -51.7107 -51.6739
   -51.5975 -51.5911 -51.5478 -51.4854 -51.4313 -51.2713 -51.2557 -51.0932
   -44.8284 -16.9062 -16.8208 -16.7994 -16.4240 -16.2385 -16.1617 -16.0214
   -14.1718 -14.0355 -13.9635 -13.8841 -13.8489 -13.7990 -13.7636 -13.7213
   -13.6851 -13.6170 -13.5877 -13.5172  -4.6434  -4.1959  -3.9942  -3.7702
    -2.5252  -2.3777  -2.1745  -2.0827  -1.7675  -1.6631  -1.5112  -1.4786
    -1.4257  -1.3430  -1.2536  -1.1372  -0.4995  -0.3965  -0.2237  -0.0405
     0.0209   0.1444   0.1753   0.2613   0.3571   0.4375   0.5288   0.6162
     0.7795   0.9334   0.9992   1.1200   1.2605   1.3375   1.3755   1.5341
     1.5656   1.6732   1.7369   1.7922   1.8790   1.9930   2.0047   2.1432
     2.2388   2.3273   2.3926   2.4516   2.5680   2.6076   2.7318   2.8268
     2.9949   3.1005   3.1257   3.1985   3.3012   3.3254   3.4952   3.5242
     3.5790   3.6256   3.7246   3.8259   3.9287   4.0799   4.3116   4.5679
     8.6421  10.4668  10.8643  11.1722  11.6378  12.4084  12.5514  12.6763
    12.7334  12.8464

     occupation numbers 
     1.0000   1.0000   1.0000   1.0000   1.0000   1.0000   1.0000   1.0000
     1.0000   1.0000   1.0000   1.0000   1.0000   1.0000   1.0000   1.0000
     1.0000   1.0000   1.0000   1.0000   1.0000   1.0000   1.0000   1.0000
     1.0000   1.0000   1.0000   1.0000   1.0000   1.0000   1.0000   1.0000
     1.0000   1.0000   1.0000   1.0000   1.0000   1.0000   1.0000   1.0000
     1.0000   1.0000   1.0000   1.0000   1.0000   1.0000   1.0000   1.0000
     1.0000   1.0000   1.0000   1.0000   1.0000   1.0000   1.0000   1.0000
     1.0000   1.0000   1.0000   1.0000   1.0000   1.0000   1.0000   1.0000
     1.0000   1.0000   1.0000   1.0000   1.0000   1.0000   1.0000   1.0000
     1.0000   1.0000   1.0000   1.0000   1.0000   1.0000   1.0000   1.0000
     1.0000   1.0000   1.0000   1.0000   1.0000   1.0000   1.0000   1.0000
     1.0000   1.0000   1.0000   1.0000   1.0000   1.0000   1.0000   1.0000
     1.0000   1.0000   1.0000   1.0000   1.0000   1.0000   1.0000   1.0000
     0.0000   0.0000   0.0000   0.0000   0.0000   0.0000   0.0000   0.0000
     0.0000   0.0000

          k = 0.0000 0.2391 0.2376 ( 37671 PWs)   bands (ev):

   -85.6882 -85.6430 -85.4744 -85.2774 -51.7733 -51.7606 -51.7107 -51.6739
   -51.5975 -51.5911 -51.5478 -51.4854 -51.4313 -51.2713 -51.2557 -51.0932
   -44.8284 -16.9038 -16.8268 -16.7990 -16.4137 -16.2304 -16.1549 -16.0127
   -14.1886 -14.0391 -13.9802 -13.8858 -13.8468 -13.8108 -13.7685 -13.7196
   -13.6845 -13.6206 -13.5872 -13.5178  -4.6199  -4.1827  -3.9830  -3.7505
    -2.5112  -2.3673  -2.1925  -2.0456  -1.7569  -1.6358  -1.5379  -1.4623
    -1.4157  -1.3681  -1.2910  -1.0930  -0.4846  -0.3847  -0.2273  -0.0365
     0.0417   0.1442   0.1887   0.2710   0.3304   0.4005   0.5258   0.6149
     0.7404   0.9131   0.9516   1.1324   1.2326   1.3411   1.3689   1.5436
     1.6205   1.6830   1.7161   1.8092   1.8802   1.9976   2.0137   2.1367
     2.2341   2.3347   2.3717   2.4446   2.5254   2.5819   2.7290   2.8087
     2.9811   3.0714   3.1257   3.2051   3.2726   3.3474   3.4624   3.5277
     3.5920   3.6344   3.7207   3.8632   3.9119   4.0902   4.3136   4.5584
     8.7755  10.5439  10.9073  11.2003  11.6825  12.4082  12.4607  12.6053
    12.7373  12.8365

     occupation numbers 
     1.0000   1.0000   1.0000   1.0000   1.0000   1.0000   1.0000   1.0000
     1.0000   1.0000   1.0000   1.0000   1.0000   1.0000   1.0000   1.0000
     1.0000   1.0000   1.0000   1.0000   1.0000   1.0000   1.0000   1.0000
     1.0000   1.0000   1.0000   1.0000   1.0000   1.0000   1.0000   1.0000
     1.0000   1.0000   1.0000   1.0000   1.0000   1.0000   1.0000   1.0000
     1.0000   1.0000   1.0000   1.0000   1.0000   1.0000   1.0000   1.0000
     1.0000   1.0000   1.0000   1.0000   1.0000   1.0000   1.0000   1.0000
     1.0000   1.0000   1.0000   1.0000   1.0000   1.0000   1.0000   1.0000
     1.0000   1.0000   1.0000   1.0000   1.0000   1.0000   1.0000   1.0000
     1.0000   1.0000   1.0000   1.0000   1.0000   1.0000   1.0000   1.0000
     1.0000   1.0000   1.0000   1.0000   1.0000   1.0000   1.0000   1.0000
     1.0000   1.0000   1.0000   1.0000   1.0000   1.0000   1.0000   1.0000
     1.0000   1.0000   1.0000   1.0000   1.0000   1.0000   1.0000   1.0000
     0.0000   0.0000   0.0000   0.0000   0.0000   0.0000   0.0000   0.0000
     0.0000   0.0000

          k = 0.0000 0.2391 0.4753 ( 37686 PWs)   bands (ev):

   -85.6882 -85.6430 -85.4744 -85.2774 -51.7733 -51.7606 -51.7107 -51.6739
   -51.5975 -51.5911 -51.5478 -51.4854 -51.4313 -51.2713 -51.2557 -51.0932
   -44.8284 -16.9034 -16.8357 -16.7990 -16.3793 -16.2135 -16.1314 -16.0013
   -14.2241 -14.0562 -14.0172 -13.8996 -13.8616 -13.8169 -13.7689 -13.7181
   -13.6961 -13.6226 -13.5883 -13.5184  -4.5455  -4.1444  -3.9645  -3.7195
    -2.4946  -2.3451  -2.1580  -2.0055  -1.7602  -1.5966  -1.5722  -1.4525
    -1.3914  -1.3614  -1.3100  -1.0613  -0.4828  -0.3430  -0.2022  -0.0400
     0.0469   0.1307   0.2010   0.2460   0.3195   0.4163   0.5315   0.6365
     0.6922   0.8607   0.9316   1.1303   1.2132   1.3082   1.3594   1.5246
     1.6070   1.6546   1.7256   1.8015   1.8654   1.9667   2.0181   2.1372
     2.1892   2.3014   2.3607   2.3971   2.4672   2.5296   2.7554   2.7914
     2.9725   3.0165   3.1141   3.2114   3.2619   3.3581   3.4666   3.5230
     3.5951   3.6397   3.7494   3.8746   3.9192   4.0941   4.3047   4.5469
     9.1403  10.7240  10.9940  11.2959  11.7830  12.1994  12.4057  12.4756
    12.6329  12.7583

     occupation numbers 
     1.0000   1.0000   1.0000   1.0000   1.0000   1.0000   1.0000   1.0000
     1.0000   1.0000   1.0000   1.0000   1.0000   1.0000   1.0000   1.0000
     1.0000   1.0000   1.0000   1.0000   1.0000   1.0000   1.0000   1.0000
     1.0000   1.0000   1.0000   1.0000   1.0000   1.0000   1.0000   1.0000
     1.0000   1.0000   1.0000   1.0000   1.0000   1.0000   1.0000   1.0000
     1.0000   1.0000   1.0000   1.0000   1.0000   1.0000   1.0000   1.0000
     1.0000   1.0000   1.0000   1.0000   1.0000   1.0000   1.0000   1.0000
     1.0000   1.0000   1.0000   1.0000   1.0000   1.0000   1.0000   1.0000
     1.0000   1.0000   1.0000   1.0000   1.0000   1.0000   1.0000   1.0000
     1.0000   1.0000   1.0000   1.0000   1.0000   1.0000   1.0000   1.0000
     1.0000   1.0000   1.0000   1.0000   1.0000   1.0000   1.0000   1.0000
     1.0000   1.0000   1.0000   1.0000   1.0000   1.0000   1.0000   1.0000
     1.0000   1.0000   1.0000   1.0000   1.0000   1.0000   1.0000   1.0000
     0.0000   0.0000   0.0000   0.0000   0.0000   0.0000   0.0000   0.0000
     0.0000   0.0000

          k = 0.0000 0.2391 0.7129 ( 37698 PWs)   bands (ev):

   -85.6882 -85.6430 -85.4744 -85.2774 -51.7733 -51.7606 -51.7107 -51.6739
   -51.5975 -51.5911 -51.5478 -51.4854 -51.4313 -51.2713 -51.2557 -51.0932
   -44.8284 -16.9066 -16.8419 -16.7987 -16.3346 -16.1965 -16.0997 -15.9954
   -14.2623 -14.0934 -14.0429 -13.9287 -13.8878 -13.8111 -13.7614 -13.7209
   -13.6987 -13.6264 -13.5917 -13.5215  -4.4491  -4.0929  -3.9498  -3.7096
    -2.4951  -2.2979  -2.0870  -1.9851  -1.7740  -1.6132  -1.5759  -1.4630
    -1.3696  -1.3057  -1.2701  -1.0726  -0.4918  -0.3017  -0.1330  -0.0543
     0.0677   0.1417   0.1629   0.2700   0.3662   0.4454   0.5574   0.6456
     0.7008   0.8151   0.8924   1.0882   1.2088   1.2328   1.3140   1.4307
     1.5127   1.6178   1.6731   1.8030   1.8538   1.9287   1.9967   2.1209
     2.1719   2.2234   2.3081   2.3579   2.4210   2.5588   2.7629   2.8430
     2.9400   2.9987   3.0926   3.2208   3.2858   3.3578   3.4870   3.5226
     3.6012   3.6427   3.7890   3.8560   3.9399   4.0968   4.2958   4.5374
     9.6482  10.9165  11.0475  11.4092  11.7047  12.1097  12.2790  12.3959
    12.5170  12.6934

     occupation numbers 
     1.0000   1.0000   1.0000   1.0000   1.0000   1.0000   1.0000   1.0000
     1.0000   1.0000   1.0000   1.0000   1.0000   1.0000   1.0000   1.0000
     1.0000   1.0000   1.0000   1.0000   1.0000   1.0000   1.0000   1.0000
     1.0000   1.0000   1.0000   1.0000   1.0000   1.0000   1.0000   1.0000
     1.0000   1.0000   1.0000   1.0000   1.0000   1.0000   1.0000   1.0000
     1.0000   1.0000   1.0000   1.0000   1.0000   1.0000   1.0000   1.0000
     1.0000   1.0000   1.0000   1.0000   1.0000   1.0000   1.0000   1.0000
     1.0000   1.0000   1.0000   1.0000   1.0000   1.0000   1.0000   1.0000
     1.0000   1.0000   1.0000   1.0000   1.0000   1.0000   1.0000   1.0000
     1.0000   1.0000   1.0000   1.0000   1.0000   1.0000   1.0000   1.0000
     1.0000   1.0000   1.0000   1.0000   1.0000   1.0000   1.0000   1.0000
     1.0000   1.0000   1.0000   1.0000   1.0000   1.0000   1.0000   1.0000
     1.0000   1.0000   1.0000   1.0000   1.0000   1.0000   1.0000   1.0000
     0.0000   0.0000   0.0000   0.0000   0.0000   0.0000   0.0000   0.0000
     0.0000   0.0000

          k = 0.0000 0.2391 0.9505 ( 37713 PWs)   bands (ev):

   -85.6882 -85.6430 -85.4744 -85.2774 -51.7733 -51.7606 -51.7107 -51.6739
   -51.5975 -51.5911 -51.5478 -51.4854 -51.4313 -51.2713 -51.2557 -51.0932
   -44.8284 -16.9114 -16.8429 -16.7986 -16.2999 -16.1863 -16.0740 -16.0006
   -14.2856 -14.1270 -14.0497 -13.9506 -13.9065 -13.8102 -13.7588 -13.7198
   -13.6932 -13.6277 -13.5974 -13.5245  -4.3720  -4.0495  -3.9420  -3.7372
    -2.4918  -2.2609  -2.0299  -1.9810  -1.7851  -1.6477  -1.5905  -1.4578
    -1.3317  -1.2613  -1.2234  -1.1097  -0.5016  -0.2665  -0.1112  -0.0399
     0.0834   0.1295   0.2098   0.3257   0.4146   0.4996   0.5543   0.6576
     0.7451   0.7683   0.8174   1.0506   1.1147   1.1799   1.2901   1.3607
     1.4893   1.5158   1.6803   1.7172   1.8784   1.9079   1.9638   2.1007
     2.1394   2.1808   2.2708   2.3316   2.4228   2.6225   2.7756   2.8631
     2.9235   2.9829   3.1106   3.2192   3.2919   3.3746   3.4811   3.5454
     3.6032   3.6627   3.7863   3.8599   3.9442   4.0888   4.3043   4.5268
    10.1904  10.7822  11.1370  11.3769  11.6357  12.1432  12.2244  12.3863
    12.5024  12.5588

     occupation numbers 
     1.0000   1.0000   1.0000   1.0000   1.0000   1.0000   1.0000   1.0000
     1.0000   1.0000   1.0000   1.0000   1.0000   1.0000   1.0000   1.0000
     1.0000   1.0000   1.0000   1.0000   1.0000   1.0000   1.0000   1.0000
     1.0000   1.0000   1.0000   1.0000   1.0000   1.0000   1.0000   1.0000
     1.0000   1.0000   1.0000   1.0000   1.0000   1.0000   1.0000   1.0000
     1.0000   1.0000   1.0000   1.0000   1.0000   1.0000   1.0000   1.0000
     1.0000   1.0000   1.0000   1.0000   1.0000   1.0000   1.0000   1.0000
     1.0000   1.0000   1.0000   1.0000   1.0000   1.0000   1.0000   1.0000
     1.0000   1.0000   1.0000   1.0000   1.0000   1.0000   1.0000   1.0000
     1.0000   1.0000   1.0000   1.0000   1.0000   1.0000   1.0000   1.0000
     1.0000   1.0000   1.0000   1.0000   1.0000   1.0000   1.0000   1.0000
     1.0000   1.0000   1.0000   1.0000   1.0000   1.0000   1.0000   1.0000
     1.0000   1.0000   1.0000   1.0000   1.0000   1.0000   1.0000   1.0000
     0.0000   0.0000   0.0000   0.0000   0.0000   0.0000   0.0000   0.0000
     0.0000   0.0000

          k = 0.0000 0.4781 0.0000 ( 37720 PWs)   bands (ev):

   -85.6882 -85.6430 -85.4744 -85.2774 -51.7733 -51.7606 -51.7107 -51.6739
   -51.5975 -51.5911 -51.5478 -51.4854 -51.4313 -51.2713 -51.2557 -51.0932
   -44.8284 -16.9159 -16.8298 -16.8009 -16.3789 -16.2179 -16.1507 -16.0565
   -14.1831 -14.0448 -13.9603 -13.9323 -13.8473 -13.8084 -13.7488 -13.7208
   -13.6845 -13.6200 -13.5733 -13.5136  -4.5653  -4.1383  -4.0189  -3.7802
[...]
     atom    9 type  4   force =    -0.01432103    0.00217976    0.01530871
     atom   10 type  3   force =    -0.00258178    0.00197075    0.00287195
     atom   11 type  3   force =    -0.00360622    0.00165623   -0.00203276
     atom   12 type  3   force =     0.00122636    0.00685326    0.00300753
     atom   13 type  3   force =     0.00426744   -0.00209332   -0.00102026
     atom   14 type  3   force =     0.03089840   -0.00381258   -0.00794788
     atom   15 type  3   force =    -0.03181171    0.00956419    0.00269261
     atom   16 type  3   force =    -0.03212593    0.00316675    0.00635177
     atom   17 type  3   force =     0.02609075   -0.00771991   -0.00022145
     atom   18 type  3   force =    -0.00565029   -0.01598285    0.00948442
     atom   19 type  3   force =     0.00863083    0.01257862    0.00947002
     atom   20 type  3   force =    -0.00046596   -0.02832575   -0.01565847
     atom   21 type  3   force =     0.00055397    0.01889826   -0.00563384
     atom   22 type  3   force =     0.00714490    0.01643495   -0.00813167
     atom   23 type  3   force =    -0.00976415   -0.01402804   -0.01251668
     atom   24 type  3   force =    -0.00112113    0.03332537    0.01437992
     atom   25 type  3   force =     0.00214709   -0.01780558    0.00398793
     The non-local contrib.  to forces
     atom    1 type  2   force =    -0.07579743   -0.00432070   -0.02632074
     atom    2 type  1   force =     0.07553540   -0.13674082   -0.05944323
     atom    3 type  1   force =    -0.01329675   -0.12517234    0.15183564
     atom    4 type  1   force =    -0.06155675    0.11365049    0.17187479
     atom    5 type  1   force =     0.01826597    0.13250164   -0.07295741
     atom    6 type  4   force =    -0.05429642    0.04878843    0.00589974
     atom    7 type  4   force =    -0.01098418    0.02011415   -0.07807361
     atom    8 type  4   force =     0.01581007   -0.03665050   -0.01999052
     atom    9 type  4   force =    -0.00084588   -0.01061513    0.06987567
     atom   10 type  3   force =    -0.36600027   -0.11066199   -1.21108672
     atom   11 type  3   force =    -0.03857844    0.18714660   -1.44871196
     atom   12 type  3   force =     0.48460365    0.09369611    1.18713640
     atom   13 type  3   force =    -0.04746339   -0.22239808    1.43501800
     atom   14 type  3   force =     1.34464953   -0.16788093   -0.55816552
     atom   15 type  3   force =    -1.23203052    0.69549761   -0.09072602
     atom   16 type  3   force =    -1.40031991    0.12184987    0.57953629
     atom   17 type  3   force =     1.19500876   -0.71061291    0.22001132
     atom   18 type  3   force =    -0.42229120   -1.38113676    0.63666147
     atom   19 type  3   force =     0.53868919    0.79352634    0.94699771
     atom   20 type  3   force =    -0.07455402   -1.45604498   -0.97516083
     atom   21 type  3   force =    -0.10284968    1.05323649   -0.62797256
     atom   22 type  3   force =     0.36572771    1.29552457   -0.69100159
     atom   23 type  3   force =    -0.59053005   -0.73043396   -0.99299379
     atom   24 type  3   force =     0.10750147    1.46980140    1.02834079
     atom   25 type  3   force =     0.28266243   -1.01525288    0.64309213
     The ionic contribution  to forces
     atom    1 type  2   force =    -1.78291181    3.70912616    2.11169807
     atom    2 type  1   force =    13.77832125   -0.15444872   -0.96440868
     atom    3 type  1   force =     3.02081722   -6.39695947   -3.15466282
     atom    4 type  1   force =   -10.78570696   -3.94831273    2.94611832
     atom    5 type  1   force =    -6.61318669    7.85643434    1.17898192
     atom    6 type  4   force =    -0.57579041    1.18321887   -0.92376226
     atom    7 type  4   force =     4.16402503   -0.05905224    0.78901400
     atom    8 type  4   force =     1.78651686   -2.49095737    0.87254806
     atom    9 type  4   force =    -4.35654399    0.76540152   -1.04166968
     atom   10 type  3   force =    -0.63889915    1.57666574   -1.05461905
     atom   11 type  3   force =     8.23933459   -2.18942765    2.12993302
     atom   12 type  3   force =     1.80130907   -6.48988874   -1.37379474
     atom   13 type  3   force =    -8.34078910    3.48716193   -2.15081557
     atom   14 type  3   force =     1.54358488    0.55550727    6.59984787
     atom   15 type  3   force =    -0.42263044   -3.77190933    2.33165665
     atom   16 type  3   force =    -0.86074118   -0.61645603   -7.00640156
     atom   17 type  3   force =     0.16784026    6.28398155   -3.53842760
     atom   18 type  3   force =    -1.03214417    7.90367499    3.72249934
     atom   19 type  3   force =     4.99330513   -0.89443753   -3.98016219
     atom   20 type  3   force =     3.16403882    2.03866884    8.31911863
     atom   21 type  3   force =    -9.67193022   -1.00003243    0.23931716
     atom   22 type  3   force =     2.31327605   -5.97764462   -1.32809696
     atom   23 type  3   force =    -3.85669822    1.21754830    4.44353282
     atom   24 type  3   force =    -3.90290096   -4.12366663   -8.34538837
     atom   25 type  3   force =     7.86850411    1.53580399   -0.82205642
     The local contribution  to forces
     atom    1 type  2   force =     1.85747703   -3.70609440   -2.07658818
     atom    2 type  1   force =   -13.85015439    0.29303936    1.02543899
     atom    3 type  1   force =    -3.01030492    6.52236026    3.00285790
     atom    4 type  1   force =    10.84296347    3.83278669   -3.12153862
     atom    5 type  1   force =     6.60069552   -7.99808404   -1.10695997
     atom    6 type  4   force =     0.61950175   -1.23827640    0.91099756
     atom    7 type  4   force =    -4.14071660    0.03939976   -0.73277837
     atom    8 type  4   force =    -1.78690521    2.52559720   -0.84930622
     atom    9 type  4   force =     4.34234825   -0.75306137    0.99196532
     atom   10 type  3   force =     0.99965352   -1.46494280    2.25810496
     atom   11 type  3   force =    -8.20547694    2.00579874   -0.69589247
     atom   12 type  3   force =    -2.28072634    6.40381292    0.20012640
     atom   13 type  3   force =     8.39288660   -3.26915185    0.72726187
     atom   14 type  3   force =    -2.84540229   -0.39305128   -6.05525936
     atom   15 type  3   force =     1.61201075    3.09264916   -2.23955684
     atom   16 type  3   force =     2.21647701    0.49893372    6.43906920
     atom   17 type  3   force =    -1.32614611   -5.58807046    3.32064857
     atom   18 type  3   force =     1.44544475   -6.55146173   -4.34422449
     atom   19 type  3   force =    -5.51849368    0.12031565    3.05144797
     atom   20 type  3   force =    -3.09082990   -0.62408836   -7.36890095
     atom   21 type  3   force =     9.77457072   -0.02488002    0.37721637
     atom   22 type  3   force =    -2.66905857    4.71069443    2.00500750
     atom   23 type  3   force =     4.43213901   -0.50736616   -3.47228473
     atom   24 type  3   force =     3.79552463    2.70043585    7.34129207
     atom   25 type  3   force =    -8.14648760   -0.54741824    0.18893305
     The core correction contribution to forces
     atom    1 type  2   force =     0.00000000    0.00000000    0.00000000
     atom    2 type  1   force =    -0.00245667    0.00170638    0.00068644
     atom    3 type  1   force =     0.00070275    0.00128340   -0.00118269
     atom    4 type  1   force =     0.00258223   -0.00063371   -0.00124765
     atom    5 type  1   force =    -0.00135201    0.00067219   -0.00064991
     atom    6 type  4   force =     0.00558813   -0.00245652    0.00066221
     atom    7 type  4   force =     0.00004332   -0.00165440    0.00587287
     atom    8 type  4   force =    -0.00294479    0.00227003    0.00099042
     atom    9 type  4   force =     0.00072161    0.00045414   -0.00486289
     atom   10 type  3   force =     0.00266196    0.00090865    0.01047167
     atom   11 type  3   force =     0.00111355   -0.00186155    0.01263889
     atom   12 type  3   force =    -0.00395981   -0.00076775   -0.01046086
     atom   13 type  3   force =    -0.00036584    0.00229414   -0.01248468
     atom   14 type  3   force =    -0.01193299    0.00161173    0.00562943
     atom   15 type  3   force =     0.01083776   -0.00667331    0.00131837
     atom   16 type  3   force =     0.01245901   -0.00116103   -0.00585225
     atom   17 type  3   force =    -0.01061198    0.00698131   -0.00245395
     atom   18 type  3   force =     0.00333817    0.01294038   -0.00545116
     atom   19 type  3   force =    -0.00487082   -0.00682459   -0.00881423
     atom   20 type  3   force =     0.00087918    0.01313776    0.00928446
     atom   21 type  3   force =     0.00076415   -0.00942689    0.00580499
     atom   22 type  3   force =    -0.00280029   -0.01213938    0.00595927
     atom   23 type  3   force =     0.00532601    0.00622389    0.00922898
     atom   24 type  3   force =    -0.00124736   -0.01324599   -0.00986418
     atom   25 type  3   force =    -0.00253286    0.00905997   -0.00598154
     The Hubbard contrib.    to forces
     atom    1 type  2   force =     0.00000000    0.00000000    0.00000000
     atom    2 type  1   force =     0.00000000    0.00000000    0.00000000
     atom    3 type  1   force =     0.00000000    0.00000000    0.00000000
     atom    4 type  1   force =     0.00000000    0.00000000    0.00000000
     atom    5 type  1   force =     0.00000000    0.00000000    0.00000000
     atom    6 type  4   force =     0.00000000    0.00000000    0.00000000
     atom    7 type  4   force =     0.00000000    0.00000000    0.00000000
     atom    8 type  4   force =     0.00000000    0.00000000    0.00000000
     atom    9 type  4   force =     0.00000000    0.00000000    0.00000000
     atom   10 type  3   force =     0.00000000    0.00000000    0.00000000
     atom   11 type  3   force =     0.00000000    0.00000000    0.00000000
     atom   12 type  3   force =     0.00000000    0.00000000    0.00000000
     atom   13 type  3   force =     0.00000000    0.00000000    0.00000000
     atom   14 type  3   force =     0.00000000    0.00000000    0.00000000
     atom   15 type  3   force =     0.00000000    0.00000000    0.00000000
     atom   16 type  3   force =     0.00000000    0.00000000    0.00000000
     atom   17 type  3   force =     0.00000000    0.00000000    0.00000000
     atom   18 type  3   force =     0.00000000    0.00000000    0.00000000
     atom   19 type  3   force =     0.00000000    0.00000000    0.00000000
     atom   20 type  3   force =     0.00000000    0.00000000    0.00000000
     atom   21 type  3   force =     0.00000000    0.00000000    0.00000000
     atom   22 type  3   force =     0.00000000    0.00000000    0.00000000
     atom   23 type  3   force =     0.00000000    0.00000000    0.00000000
     atom   24 type  3   force =     0.00000000    0.00000000    0.00000000
     atom   25 type  3   force =     0.00000000    0.00000000    0.00000000
     The SCF correction term to forces
     atom    1 type  2   force =     0.00000098   -0.00000003    0.00000006
     atom    2 type  1   force =     0.00000275    0.00000117    0.00000018
     atom    3 type  1   force =     0.00000332   -0.00000097    0.00000002
     atom    4 type  1   force =    -0.00000338   -0.00000014    0.00000053
     atom    5 type  1   force =    -0.00000234    0.00000123   -0.00000019
     atom    6 type  4   force =     0.00000097    0.00000023   -0.00000022
     atom    7 type  4   force =     0.00000023   -0.00000048    0.00000018
     atom    8 type  4   force =     0.00000005    0.00000014    0.00000012
     atom    9 type  4   force =    -0.00000126    0.00000013    0.00000011
     atom   10 type  3   force =     0.00000193    0.00000069    0.00000090
     atom   11 type  3   force =     0.00000079   -0.00000038   -0.00000042
     atom   12 type  3   force =    -0.00000045    0.00000025    0.00000015
     atom   13 type  3   force =    -0.00000107    0.00000007   -0.00000006
     atom   14 type  3   force =    -0.00000096    0.00000016   -0.00000048
     atom   15 type  3   force =     0.00000050   -0.00000040    0.00000026
     atom   16 type  3   force =    -0.00000109   -0.00000025   -0.00000010
     atom   17 type  3   force =    -0.00000041    0.00000014    0.00000003
     atom   18 type  3   force =     0.00000193   -0.00000019   -0.00000092
     atom   19 type  3   force =     0.00000078   -0.00000173    0.00000057
     atom   20 type  3   force =    -0.00000027    0.00000052    0.00000005
     atom   21 type  3   force =    -0.00000124    0.00000064    0.00000001
     atom   22 type  3   force =    -0.00000024   -0.00000052   -0.00000007
     atom   23 type  3   force =    -0.00000114   -0.00000058   -0.00000013
     atom   24 type  3   force =     0.00000085    0.00000027   -0.00000057
     atom   25 type  3   force =     0.00000077    0.00000111    0.00000053

     Total force =     0.100575     Total SCF correction =     0.000008


     Computing stress (Cartesian axis) and pressure


     negative rho (up, down):  0.000E+00 8.875E-04
          total   stress  (Ry/bohr**3)                   (kbar)     P=      -36.53
  -0.00060061   0.00009675   0.00000347          -88.35       14.23        0.51
   0.00009675  -0.00015520  -0.00010163           14.23      -22.83      -14.95
   0.00000347  -0.00010163   0.00001085            0.51      -14.95        1.60

     kinetic stress (kbar)  25520.84     71.62    -44.44
                               71.62  25679.86     -8.73
                              -44.44     -8.73  25687.38

     local   stress (kbar)  -8210.90   3396.63  -6860.23
                             3396.63 -14134.62    580.38
                            -6860.23    580.38  -5621.24

     nonloc. stress (kbar)  -6529.29      8.66      1.55
                                8.66  -6493.00     -4.93
                                1.55     -4.93  -6497.23

     hartree stress (kbar)  13939.50  -1284.60   2887.22
                            -1284.60  17193.60   -178.80
                             2887.22   -178.80  13367.54

     exc-cor stress (kbar)  -2704.21     -2.92      3.02
                               -2.92  -2708.96     -1.03
                                3.02     -1.03  -2708.91

     corecor stress (kbar)  -3012.17      0.01     -0.82
                                0.01  -3013.36      0.80
                               -0.82      0.80  -3014.01

     ewald   stress (kbar) -19092.13  -2175.17   4014.22
                            -2175.17 -16546.34   -402.65
                             4014.22   -402.65 -21211.94

     hubbard stress (kbar)      0.00      0.00      0.00
                                0.00      0.00      0.00
                                0.00      0.00      0.00

     DFT-D   stress (kbar)      0.00      0.00      0.00
                                0.00      0.00      0.00
                                0.00      0.00      0.00

     XDM     stress (kbar)      0.00      0.00      0.00
                                0.00      0.00      0.00
                                0.00      0.00      0.00

     dft-nl  stress (kbar)      0.00      0.00      0.00
                                0.00      0.00      0.00
                                0.00      0.00      0.00

     TS-vdW  stress (kbar)      0.00      0.00      0.00
                                0.00      0.00      0.00
                                0.00      0.00      0.00



     init_run     :   2136.74s CPU   2519.96s WALL (       1 calls)
     electrons    : 171867.32s CPU 211601.34s WALL (       1 calls)
     forces       :    352.60s CPU    354.13s WALL (       1 calls)
     stress       :   1050.59s CPU   1094.61s WALL (       1 calls)

     Called by init_run:
     wfcinit      :   2117.81s CPU   2495.74s WALL (       1 calls)
     wfcinit:atom :      1.69s CPU      1.96s WALL (     316 calls)
     wfcinit:wfcr :   2107.14s CPU   2482.73s WALL (     316 calls)
     potinit      :      7.83s CPU      9.40s WALL (       1 calls)
     hinit0       :      7.82s CPU      9.53s WALL (       1 calls)

     Called by electrons:
     c_bands      : 143608.62s CPU 176625.00s WALL (      36 calls)
     sum_band     :  27988.52s CPU  34625.49s WALL (      36 calls)
     v_of_rho     :     80.53s CPU     98.41s WALL (      37 calls)
     v_h          :      5.48s CPU      6.93s WALL (      37 calls)
     v_xc         :     79.98s CPU     96.43s WALL (      39 calls)
     newd         :     87.92s CPU    127.08s WALL (      37 calls)
     PAW_pot      :     36.25s CPU     45.21s WALL (      37 calls)
     mix_rho      :     50.57s CPU     63.20s WALL (      36 calls)

     Called by c_bands:
     init_us_2    :    186.46s CPU    229.43s WALL (   23700 calls)
     cegterg      : 142241.27s CPU 174908.07s WALL (   11376 calls)

     Called by sum_band:
     sum_band:wei :      0.59s CPU      0.79s WALL (      36 calls)
     sum_band:loo :  27764.17s CPU  34327.45s WALL (      36 calls)
     sum_band:buf :     49.67s CPU     54.98s WALL (   11376 calls)
     sum_band:ini :     80.32s CPU    102.09s WALL (   11376 calls)
     sum_band:cal :   2263.70s CPU   2776.01s WALL (   11376 calls)
     sum_band:bec :      6.57s CPU      6.95s WALL (   11376 calls)
     addusdens    :    177.38s CPU    246.01s WALL (      36 calls)
     addusd:skk   :      0.97s CPU      1.20s WALL (     108 calls)
     addusd:dgemm :     49.93s CPU     82.41s WALL (     216 calls)
     addusd:qvan2 :    124.15s CPU    155.38s WALL (     216 calls)

     Called by *egterg:
     cdiaghg      :   3897.58s CPU   4887.71s WALL (   42781 calls)
     cegterg:over :   6526.04s CPU   7892.60s WALL (   31405 calls)
     cegterg:upda :   1202.15s CPU   1531.01s WALL (   31405 calls)
     cegterg:last :   2794.46s CPU   3536.43s WALL (   19743 calls)
     h_psi        : 121025.52s CPU 148750.49s WALL (   43097 calls)
     s_psi        :   2799.95s CPU   3523.11s WALL (   43097 calls)
     g_psi        :     20.82s CPU     25.28s WALL (   31405 calls)

     Called by h_psi:
     h_psi:calbec :   5813.30s CPU   7087.36s WALL (   43097 calls)
     vloc_psi     : 112238.02s CPU 137843.71s WALL (   43097 calls)
     add_vuspsi   :   2898.49s CPU   3733.86s WALL (   43097 calls)

     General routines
     calbec       :   8696.16s CPU  10488.69s WALL (   56053 calls)
     fft          :    129.77s CPU    150.79s WALL (     963 calls)
     ffts         :     11.15s CPU     13.75s WALL (     146 calls)
     fftw         : 137100.31s CPU 168726.89s WALL ( 6979650 calls)
     interpolate  :     12.84s CPU     15.56s WALL (      74 calls)

     Parallel routines
     fft_scatt_xy :    696.33s CPU    726.23s WALL ( 6980759 calls)
     fft_scatt_yz : 133759.73s CPU 165289.59s WALL ( 6980759 calls)

     PAW routines
     PAW_pot      :     36.25s CPU     45.21s WALL (      37 calls)

     PWSCF        :   2d 0h43m CPU   2d11h53m WALL


   This run was terminated on:  17:57:39  17Jan2023            

=------------------------------------------------------------------------------=
   JOB DONE.
=------------------------------------------------------------------------------=
Note: The following floating-point exceptions are signalling: IEEE_UNDERFLOW_FLAG IEEE_DENORMAL
Note: The following floating-point exceptions are signalling: IEEE_DENORMAL
Note: The following floating-point exceptions are signalling: IEEE_DENORMAL
Note: The following floating-point exceptions are signalling: IEEE_DENORMAL
Note: The following floating-point exceptions are signalling: IEEE_DENORMAL
Note: The following floating-point exceptions are signalling: IEEE_DENORMAL
Note: The following floating-point exceptions are signalling: IEEE_DENORMAL
Note: The following floating-point exceptions are signalling: IEEE_DENORMAL
Note: The following floating-point exceptions are signalling: IEEE_DENORMAL
Note: The following floating-point exceptions are signalling: IEEE_DENORMAL
