
     Program PWSCF v.6.7MaX starts on 12Jan2023 at 20:42:14 

     This program is part of the open-source Quantum ESPRESSO suite
     for quantum simulation of materials; please cite
         "P. Giannozzi et al., J. Phys.:Condens. Matter 21 395502 (2009);
         "P. Giannozzi et al., J. Phys.:Condens. Matter 29 465901 (2017);
          URL http://www.quantum-espresso.org", 
     in publications or presentations arising from this work. More details at
     http://www.quantum-espresso.org/quote

     Parallel version (MPI), running on    12 processors

     MPI processes distributed on     1 nodes
     R & G space division:  proc/nbgrp/npool/nimage =      12
     Reading input from scale_1da-01.in

     Current dimensions of program PWSCF are:
     Max number of different atomic species (ntypx) = 10
     Max number of k-points (npk) =  40000
     Max angular momentum in pseudopotentials (lmaxx) =  3
     Message from routine read_pp_mesh:
     mesh size missing, using the one in header
     file Fe.pbe-spn-kjpaw_psl.0.2.1.UPF: wavefunction(s)  3D renormalized
     file O.pbe-n-kjpaw_psl.0.1.UPF: wavefunction(s)  2P renormalized

     Subspace diagonalization in iterative solution of the eigenvalue problem:
     a serial algorithm will be used


     Parallelization info
     --------------------
     sticks:   dense  smooth     PW     G-vecs:    dense   smooth      PW
     Min        1600     593    159               104309    23515    3303
     Max        1602     594    160               104310    23518    3306
     Sum       19205    7123   1917              1251717   282189   39655



     bravais-lattice index     =            0
     lattice parameter (alat)  =      19.0096  a.u.
     unit-cell volume          =    2088.3459 (a.u.)^3
     number of atoms/cell      =           25
     number of atomic types    =            4
     number of electrons       =       189.00
     number of Kohn-Sham states=          114
     kinetic-energy cutoff     =     100.0000  Ry
     charge density cutoff     =    1080.0000  Ry
     scf convergence threshold =      2.0E-10
     mixing beta               =       0.4000
     number of iterations used =            8  plain     mixing
     Exchange-correlation= PBE
                           (   1   4   3   4   0   0   0)

     celldm(1)=  19.009555  celldm(2)=   0.000000  celldm(3)=   0.000000
     celldm(4)=   0.000000  celldm(5)=   0.000000  celldm(6)=   0.000000

     crystal axes: (cart. coord. in units of alat)
               a(1) = (   1.000000   0.000000   0.000000 )  
               a(2) = (   0.000000   0.618196   0.000000 )  
               a(3) = (   0.000000   0.000000   0.491768 )  

     reciprocal axes: (cart. coord. in units 2 pi/alat)
               b(1) = (  1.000000  0.000000  0.000000 )  
               b(2) = (  0.000000  1.617609  0.000000 )  
               b(3) = (  0.000000  0.000000  2.033480 )  


     PseudoPot. # 1 for Fe read from file:
     /opt/QEpot/SSSP_precision_pseudos/Fe.pbe-spn-kjpaw_psl.0.2.1.UPF
     MD5 check sum: e86618425769142926afa95317d90200
     Pseudo is Projector augmented-wave + core cor, Zval = 16.0
     Generated using "atomic" code by A. Dal Corso  v.5.0.99 svn rev. 10869
     Shape of augmentation charge: PSQ
     Using radial grid of 1191 points,  6 beta functions with: 
                l(1) =   0
                l(2) =   0
                l(3) =   1
                l(4) =   1
                l(5) =   2
                l(6) =   2
     Q(r) pseudized with 0 coefficients 


     PseudoPot. # 2 for Na read from file:
     /opt/QEpot/SSSP_precision_pseudos/Na_ONCV_PBE-1.0.oncvpsp.upf
     MD5 check sum: 24a298df0a6742ae313db96548fdb2a4
     Pseudo is Norm-conserving, Zval =  9.0
     Generated using ONCVPSP code by D. R. Hamann
     Using radial grid of 1992 points,  4 beta functions with: 
                l(1) =   0
                l(2) =   0
                l(3) =   1
                l(4) =   1

     PseudoPot. # 3 for O  read from file:
     /opt/QEpot/SSSP_precision_pseudos/O.pbe-n-kjpaw_psl.0.1.UPF
     MD5 check sum: 0234752ac141de4415c5fc33072bef88
     Pseudo is Projector augmented-wave + core cor, Zval =  6.0
     Generated using "atomic" code by A. Dal Corso  v.5.0.99 svn rev. 10869
     Shape of augmentation charge: BESSEL
     Using radial grid of 1095 points,  4 beta functions with: 
                l(1) =   0
                l(2) =   0
                l(3) =   1
                l(4) =   1
     Q(r) pseudized with 0 coefficients 


     PseudoPot. # 4 for P  read from file:
     /opt/QEpot/SSSP_precision_pseudos/P.pbe-n-rrkjus_psl.1.0.0.UPF
     MD5 check sum: 8b930f418f0a4573dca56cd030ffe088
     Pseudo is Ultrasoft + core correction, Zval =  5.0
     Generated using "atomic" code by A. Dal Corso  v.5.1
     Using radial grid of 1147 points,  6 beta functions with: 
                l(1) =   0
                l(2) =   0
                l(3) =   1
                l(4) =   1
                l(5) =   2
                l(6) =   2
     Q(r) pseudized with 0 coefficients 


     atomic species   valence    mass     pseudopotential
        Fe            16.00    55.84500     Fe( 1.00)
        Na             9.00    22.98977     Na( 1.00)
        O              6.00    15.99940     O ( 1.00)
        P              5.00    30.97376     P ( 1.00)

     Starting magnetic structure 
     atomic species   magnetization
        Fe           0.312
        Na           0.000
        O            0.000
        P            0.000

     No symmetry found


                                    s                        frac. trans.

      isym =  1     identity                                     

 cryst.   s( 1) = (     1          0          0      )
                  (     0          1          0      )
                  (     0          0          1      )

 cart.    s( 1) = (  1.0000000  0.0000000  0.0000000 )
                  (  0.0000000  1.0000000  0.0000000 )
                  (  0.0000000  0.0000000  1.0000000 )


   Cartesian axes

     site n.     atom                  positions (alat units)
         1           Na  tau(   1) = (   0.9908320   0.5541056   0.4046501  )
         2           Fe  tau(   2) = (   0.2986640   0.4759278   0.4217489  )
         3           Fe  tau(   3) = (   0.2176140   0.1872270   0.2369883  )
         4           Fe  tau(   4) = (   0.6993130   0.1424479   0.0590220  )
         5           Fe  tau(   5) = (   0.7827270   0.4119080   0.2308555  )
         6           P   tau(   6) = (   0.0964330   0.4332939   0.1522139  )
         7           P   tau(   7) = (   0.3931680   0.1555110   0.4524873  )
         8           P   tau(   8) = (   0.9083370   0.1999971   0.3376900  )
         9           P   tau(   9) = (   0.6077760   0.4634625   0.0170766  )
        10           O   tau(  10) = (   0.1605150   0.4495148   0.2902639  )
        11           O   tau(  11) = (   0.3515630   0.1531804   0.1072486  )
        12           O   tau(  12) = (   0.8284030   0.2046453   0.2045700  )
        13           O   tau(  13) = (   0.6540840   0.4632641   0.3638093  )
        14           O   tau(  14) = (   0.4610620   0.4751291   0.0280642  )
        15           O   tau(  15) = (   0.0466520   0.1464217   0.3212237  )
        16           O   tau(  16) = (   0.5400580   0.1460934   0.4399876  )
        17           O   tau(  17) = (   0.9523340   0.4774480   0.1588193  )
        18           O   tau(  18) = (   0.1650350   0.5299805   0.0539990  )
        19           O   tau(  19) = (   0.3242430   0.0447618   0.3664240  )
        20           O   tau(  20) = (   0.8958430   0.3447601   0.3881218  )
        21           O   tau(  21) = (   0.6568690   0.3360250   0.0947917  )
        22           O   tau(  22) = (   0.8385610   0.1004149   0.4319521  )
        23           O   tau(  23) = (   0.6777090   0.5717600   0.1049413  )
        24           O   tau(  24) = (   0.1168020   0.2886916   0.1046265  )
        25           O   tau(  25) = (   0.3354730   0.2806185   0.3756756  )

   Crystallographic axes

     site n.     atom                  positions (cryst. coord.)
         1           Na  tau(   1) = (  0.9908320  0.8963260  0.8228480  )
         2           Fe  tau(   2) = (  0.2986640  0.7698650  0.8576180  )
         3           Fe  tau(   3) = (  0.2176140  0.3028600  0.4819110  )
         4           Fe  tau(   4) = (  0.6993130  0.2304250  0.1200200  )
         5           Fe  tau(   5) = (  0.7827270  0.6663060  0.4694400  )
         6           P   tau(   6) = (  0.0964330  0.7009000  0.3095240  )
         7           P   tau(   7) = (  0.3931680  0.2515560  0.9201240  )
         8           P   tau(   8) = (  0.9083370  0.3235170  0.6866860  )
         9           P   tau(   9) = (  0.6077760  0.7497010  0.0347250  )
        10           O   tau(  10) = (  0.1605150  0.7271390  0.5902460  )
        11           O   tau(  11) = (  0.3515630  0.2477860  0.2180880  )
        12           O   tau(  12) = (  0.8284030  0.3310360  0.4159890  )
        13           O   tau(  13) = (  0.6540840  0.7493800  0.7397990  )
        14           O   tau(  14) = (  0.4610620  0.7685730  0.0570680  )
        15           O   tau(  15) = (  0.0466520  0.2368530  0.6532020  )
        16           O   tau(  16) = (  0.5400580  0.2363220  0.8947060  )
        17           O   tau(  17) = (  0.9523340  0.7723240  0.3229560  )
        18           O   tau(  18) = (  0.1650350  0.8573010  0.1098060  )
        19           O   tau(  19) = (  0.3242430  0.0724070  0.7451160  )
        20           O   tau(  20) = (  0.8958430  0.5576870  0.7892380  )
        21           O   tau(  21) = (  0.6568690  0.5435570  0.1927570  )
        22           O   tau(  22) = (  0.8385610  0.1624320  0.8783660  )
        23           O   tau(  23) = (  0.6777090  0.9248840  0.2133960  )
        24           O   tau(  24) = (  0.1168020  0.4669900  0.2127560  )
        25           O   tau(  25) = (  0.3354730  0.4539310  0.7639290  )

     number of k points=   158  Marzari-Vanderbilt smearing, width (Ry)=  0.0073
                       cart. coord. in units 2pi/alat
        k(    1) = (   0.0000000   0.0000000   0.0000000), wk =   0.0031746
        k(    2) = (   0.0000000   0.0000000   0.2259422), wk =   0.0063492
        k(    3) = (   0.0000000   0.0000000   0.4518845), wk =   0.0063492
        k(    4) = (   0.0000000   0.0000000   0.6778267), wk =   0.0063492
        k(    5) = (   0.0000000   0.0000000   0.9037690), wk =   0.0063492
        k(    6) = (   0.0000000   0.2310870   0.0000000), wk =   0.0063492
        k(    7) = (   0.0000000   0.2310870   0.2259422), wk =   0.0063492
        k(    8) = (   0.0000000   0.2310870   0.4518845), wk =   0.0063492
        k(    9) = (   0.0000000   0.2310870   0.6778267), wk =   0.0063492
        k(   10) = (   0.0000000   0.2310870   0.9037690), wk =   0.0063492
        k(   11) = (   0.0000000   0.4621739   0.0000000), wk =   0.0063492
        k(   12) = (   0.0000000   0.4621739   0.2259422), wk =   0.0063492
        k(   13) = (   0.0000000   0.4621739   0.4518845), wk =   0.0063492
        k(   14) = (   0.0000000   0.4621739   0.6778267), wk =   0.0063492
        k(   15) = (   0.0000000   0.4621739   0.9037690), wk =   0.0063492
        k(   16) = (   0.0000000   0.6932609   0.0000000), wk =   0.0063492
        k(   17) = (   0.0000000   0.6932609   0.2259422), wk =   0.0063492
        k(   18) = (   0.0000000   0.6932609   0.4518845), wk =   0.0063492
        k(   19) = (   0.0000000   0.6932609   0.6778267), wk =   0.0063492
        k(   20) = (   0.0000000   0.6932609   0.9037690), wk =   0.0063492
        k(   21) = (   0.2000000   0.0000000   0.0000000), wk =   0.0063492
        k(   22) = (   0.2000000   0.0000000   0.2259422), wk =   0.0063492
        k(   23) = (   0.2000000   0.0000000   0.4518845), wk =   0.0063492
        k(   24) = (   0.2000000   0.0000000   0.6778267), wk =   0.0063492
        k(   25) = (   0.2000000   0.0000000   0.9037690), wk =   0.0063492
        k(   26) = (   0.2000000   0.2310870   0.0000000), wk =   0.0063492
        k(   27) = (   0.2000000   0.2310870   0.2259422), wk =   0.0063492
        k(   28) = (   0.2000000   0.2310870   0.4518845), wk =   0.0063492
        k(   29) = (   0.2000000   0.2310870   0.6778267), wk =   0.0063492
        k(   30) = (   0.2000000   0.2310870   0.9037690), wk =   0.0063492
        k(   31) = (   0.2000000   0.4621739   0.0000000), wk =   0.0063492
        k(   32) = (   0.2000000   0.4621739   0.2259422), wk =   0.0063492
        k(   33) = (   0.2000000   0.4621739   0.4518845), wk =   0.0063492
        k(   34) = (   0.2000000   0.4621739   0.6778267), wk =   0.0063492
        k(   35) = (   0.2000000   0.4621739   0.9037690), wk =   0.0063492
        k(   36) = (   0.2000000   0.6932609   0.0000000), wk =   0.0063492
        k(   37) = (   0.2000000   0.6932609   0.2259422), wk =   0.0063492
        k(   38) = (   0.2000000   0.6932609   0.4518845), wk =   0.0063492
        k(   39) = (   0.2000000   0.6932609   0.6778267), wk =   0.0063492
        k(   40) = (   0.2000000   0.6932609   0.9037690), wk =   0.0063492
        k(   41) = (   0.4000000   0.0000000   0.0000000), wk =   0.0063492
        k(   42) = (   0.4000000   0.0000000   0.2259422), wk =   0.0063492
        k(   43) = (   0.4000000   0.0000000   0.4518845), wk =   0.0063492
        k(   44) = (   0.4000000   0.0000000   0.6778267), wk =   0.0063492
        k(   45) = (   0.4000000   0.0000000   0.9037690), wk =   0.0063492
        k(   46) = (   0.4000000   0.2310870   0.0000000), wk =   0.0063492
        k(   47) = (   0.4000000   0.2310870   0.2259422), wk =   0.0063492
        k(   48) = (   0.4000000   0.2310870   0.4518845), wk =   0.0063492
        k(   49) = (   0.4000000   0.2310870   0.6778267), wk =   0.0063492
        k(   50) = (   0.4000000   0.2310870   0.9037690), wk =   0.0063492
        k(   51) = (   0.4000000   0.4621739   0.0000000), wk =   0.0063492
        k(   52) = (   0.4000000   0.4621739   0.2259422), wk =   0.0063492
        k(   53) = (   0.4000000   0.4621739   0.4518845), wk =   0.0063492
        k(   54) = (   0.4000000   0.4621739   0.6778267), wk =   0.0063492
        k(   55) = (   0.4000000   0.4621739   0.9037690), wk =   0.0063492
        k(   56) = (   0.4000000   0.6932609   0.0000000), wk =   0.0063492
        k(   57) = (   0.4000000   0.6932609   0.2259422), wk =   0.0063492
        k(   58) = (   0.4000000   0.6932609   0.4518845), wk =   0.0063492
        k(   59) = (   0.4000000   0.6932609   0.6778267), wk =   0.0063492
        k(   60) = (   0.4000000   0.6932609   0.9037690), wk =   0.0063492
        k(   61) = (   0.0000000  -0.2310870   0.2259422), wk =   0.0063492
        k(   62) = (   0.0000000  -0.2310870   0.4518845), wk =   0.0063492
        k(   63) = (   0.0000000  -0.2310870   0.6778267), wk =   0.0063492
        k(   64) = (   0.0000000  -0.2310870   0.9037690), wk =   0.0063492
        k(   65) = (   0.0000000  -0.4621739   0.2259422), wk =   0.0063492
        k(   66) = (   0.0000000  -0.4621739   0.4518845), wk =   0.0063492
        k(   67) = (   0.0000000  -0.4621739   0.6778267), wk =   0.0063492
        k(   68) = (   0.0000000  -0.4621739   0.9037690), wk =   0.0063492
        k(   69) = (   0.0000000  -0.6932609   0.2259422), wk =   0.0063492
        k(   70) = (   0.0000000  -0.6932609   0.4518845), wk =   0.0063492
        k(   71) = (   0.0000000  -0.6932609   0.6778267), wk =   0.0063492
        k(   72) = (   0.0000000  -0.6932609   0.9037690), wk =   0.0063492
        k(   73) = (  -0.2000000   0.0000000   0.2259422), wk =   0.0063492
        k(   74) = (  -0.2000000   0.0000000   0.4518845), wk =   0.0063492
        k(   75) = (  -0.2000000   0.0000000   0.6778267), wk =   0.0063492
        k(   76) = (  -0.2000000   0.0000000   0.9037690), wk =   0.0063492
        k(   77) = (  -0.2000000   0.2310870   0.0000000), wk =   0.0063492
        k(   78) = (  -0.2000000  -0.2310870   0.2259422), wk =   0.0063492
        k(   79) = (  -0.2000000   0.2310870  -0.2259422), wk =   0.0063492
        k(   80) = (   0.2000000  -0.2310870  -0.2259422), wk =   0.0063492
        k(   81) = (  -0.2000000  -0.2310870   0.4518845), wk =   0.0063492
        k(   82) = (  -0.2000000   0.2310870  -0.4518845), wk =   0.0063492
        k(   83) = (   0.2000000  -0.2310870  -0.4518845), wk =   0.0063492
        k(   84) = (  -0.2000000  -0.2310870   0.6778267), wk =   0.0063492
        k(   85) = (  -0.2000000   0.2310870  -0.6778267), wk =   0.0063492
        k(   86) = (   0.2000000  -0.2310870  -0.6778267), wk =   0.0063492
        k(   87) = (  -0.2000000  -0.2310870   0.9037690), wk =   0.0063492
        k(   88) = (  -0.2000000   0.2310870  -0.9037690), wk =   0.0063492
        k(   89) = (   0.2000000  -0.2310870  -0.9037690), wk =   0.0063492
        k(   90) = (  -0.2000000   0.4621739   0.0000000), wk =   0.0063492
        k(   91) = (  -0.2000000  -0.4621739   0.2259422), wk =   0.0063492
        k(   92) = (  -0.2000000   0.4621739  -0.2259422), wk =   0.0063492
        k(   93) = (   0.2000000  -0.4621739  -0.2259422), wk =   0.0063492
        k(   94) = (  -0.2000000  -0.4621739   0.4518845), wk =   0.0063492
        k(   95) = (  -0.2000000   0.4621739  -0.4518845), wk =   0.0063492
        k(   96) = (   0.2000000  -0.4621739  -0.4518845), wk =   0.0063492
        k(   97) = (  -0.2000000  -0.4621739   0.6778267), wk =   0.0063492
        k(   98) = (  -0.2000000   0.4621739  -0.6778267), wk =   0.0063492
        k(   99) = (   0.2000000  -0.4621739  -0.6778267), wk =   0.0063492
        k(  100) = (  -0.2000000  -0.4621739   0.9037690), wk =   0.0063492
        k(  101) = (  -0.2000000   0.4621739  -0.9037690), wk =   0.0063492
        k(  102) = (   0.2000000  -0.4621739  -0.9037690), wk =   0.0063492
        k(  103) = (  -0.2000000   0.6932609   0.0000000), wk =   0.0063492
        k(  104) = (  -0.2000000  -0.6932609   0.2259422), wk =   0.0063492
        k(  105) = (  -0.2000000   0.6932609  -0.2259422), wk =   0.0063492
        k(  106) = (   0.2000000  -0.6932609  -0.2259422), wk =   0.0063492
        k(  107) = (  -0.2000000  -0.6932609   0.4518845), wk =   0.0063492
        k(  108) = (  -0.2000000   0.6932609  -0.4518845), wk =   0.0063492
        k(  109) = (   0.2000000  -0.6932609  -0.4518845), wk =   0.0063492
        k(  110) = (  -0.2000000  -0.6932609   0.6778267), wk =   0.0063492
        k(  111) = (  -0.2000000   0.6932609  -0.6778267), wk =   0.0063492
        k(  112) = (   0.2000000  -0.6932609  -0.6778267), wk =   0.0063492
        k(  113) = (  -0.2000000  -0.6932609   0.9037690), wk =   0.0063492
        k(  114) = (  -0.2000000   0.6932609  -0.9037690), wk =   0.0063492
        k(  115) = (   0.2000000  -0.6932609  -0.9037690), wk =   0.0063492
        k(  116) = (  -0.4000000   0.0000000   0.2259422), wk =   0.0063492
        k(  117) = (  -0.4000000   0.0000000   0.4518845), wk =   0.0063492
        k(  118) = (  -0.4000000   0.0000000   0.6778267), wk =   0.0063492
        k(  119) = (  -0.4000000   0.0000000   0.9037690), wk =   0.0063492
        k(  120) = (  -0.4000000   0.2310870   0.0000000), wk =   0.0063492
        k(  121) = (  -0.4000000  -0.2310870   0.2259422), wk =   0.0063492
        k(  122) = (  -0.4000000   0.2310870  -0.2259422), wk =   0.0063492
        k(  123) = (   0.4000000  -0.2310870  -0.2259422), wk =   0.0063492
        k(  124) = (  -0.4000000  -0.2310870   0.4518845), wk =   0.0063492
        k(  125) = (  -0.4000000   0.2310870  -0.4518845), wk =   0.0063492
        k(  126) = (   0.4000000  -0.2310870  -0.4518845), wk =   0.0063492
        k(  127) = (  -0.4000000  -0.2310870   0.6778267), wk =   0.0063492
        k(  128) = (  -0.4000000   0.2310870  -0.6778267), wk =   0.0063492
        k(  129) = (   0.4000000  -0.2310870  -0.6778267), wk =   0.0063492
        k(  130) = (  -0.4000000  -0.2310870   0.9037690), wk =   0.0063492
        k(  131) = (  -0.4000000   0.2310870  -0.9037690), wk =   0.0063492
        k(  132) = (   0.4000000  -0.2310870  -0.9037690), wk =   0.0063492
        k(  133) = (  -0.4000000   0.4621739   0.0000000), wk =   0.0063492
        k(  134) = (  -0.4000000  -0.4621739   0.2259422), wk =   0.0063492
        k(  135) = (  -0.4000000   0.4621739  -0.2259422), wk =   0.0063492
        k(  136) = (   0.4000000  -0.4621739  -0.2259422), wk =   0.0063492
        k(  137) = (  -0.4000000  -0.4621739   0.4518845), wk =   0.0063492
        k(  138) = (  -0.4000000   0.4621739  -0.4518845), wk =   0.0063492
        k(  139) = (   0.4000000  -0.4621739  -0.4518845), wk =   0.0063492
        k(  140) = (  -0.4000000  -0.4621739   0.6778267), wk =   0.0063492
        k(  141) = (  -0.4000000   0.4621739  -0.6778267), wk =   0.0063492
        k(  142) = (   0.4000000  -0.4621739  -0.6778267), wk =   0.0063492
        k(  143) = (  -0.4000000  -0.4621739   0.9037690), wk =   0.0063492
        k(  144) = (  -0.4000000   0.4621739  -0.9037690), wk =   0.0063492
        k(  145) = (   0.4000000  -0.4621739  -0.9037690), wk =   0.0063492
        k(  146) = (  -0.4000000   0.6932609   0.0000000), wk =   0.0063492
        k(  147) = (  -0.4000000  -0.6932609   0.2259422), wk =   0.0063492
        k(  148) = (  -0.4000000   0.6932609  -0.2259422), wk =   0.0063492
        k(  149) = (   0.4000000  -0.6932609  -0.2259422), wk =   0.0063492
        k(  150) = (  -0.4000000  -0.6932609   0.4518845), wk =   0.0063492
        k(  151) = (  -0.4000000   0.6932609  -0.4518845), wk =   0.0063492
        k(  152) = (   0.4000000  -0.6932609  -0.4518845), wk =   0.0063492
        k(  153) = (  -0.4000000  -0.6932609   0.6778267), wk =   0.0063492
        k(  154) = (  -0.4000000   0.6932609  -0.6778267), wk =   0.0063492
        k(  155) = (   0.4000000  -0.6932609  -0.6778267), wk =   0.0063492
        k(  156) = (  -0.4000000  -0.6932609   0.9037690), wk =   0.0063492
        k(  157) = (  -0.4000000   0.6932609  -0.9037690), wk =   0.0063492
        k(  158) = (   0.4000000  -0.6932609  -0.9037690), wk =   0.0063492

                       cryst. coord.
        k(    1) = (   0.0000000   0.0000000   0.0000000), wk =   0.0031746
        k(    2) = (   0.0000000   0.0000000   0.1111111), wk =   0.0063492
        k(    3) = (   0.0000000   0.0000000   0.2222222), wk =   0.0063492
        k(    4) = (   0.0000000   0.0000000   0.3333333), wk =   0.0063492
        k(    5) = (   0.0000000   0.0000000   0.4444444), wk =   0.0063492
        k(    6) = (   0.0000000   0.1428571   0.0000000), wk =   0.0063492
        k(    7) = (   0.0000000   0.1428571   0.1111111), wk =   0.0063492
        k(    8) = (   0.0000000   0.1428571   0.2222222), wk =   0.0063492
        k(    9) = (   0.0000000   0.1428571   0.3333333), wk =   0.0063492
        k(   10) = (   0.0000000   0.1428571   0.4444444), wk =   0.0063492
        k(   11) = (   0.0000000   0.2857143   0.0000000), wk =   0.0063492
        k(   12) = (   0.0000000   0.2857143   0.1111111), wk =   0.0063492
        k(   13) = (   0.0000000   0.2857143   0.2222222), wk =   0.0063492
        k(   14) = (   0.0000000   0.2857143   0.3333333), wk =   0.0063492
        k(   15) = (   0.0000000   0.2857143   0.4444444), wk =   0.0063492
        k(   16) = (   0.0000000   0.4285714   0.0000000), wk =   0.0063492
        k(   17) = (   0.0000000   0.4285714   0.1111111), wk =   0.0063492
        k(   18) = (   0.0000000   0.4285714   0.2222222), wk =   0.0063492
        k(   19) = (   0.0000000   0.4285714   0.3333333), wk =   0.0063492
        k(   20) = (   0.0000000   0.4285714   0.4444444), wk =   0.0063492
        k(   21) = (   0.2000000   0.0000000   0.0000000), wk =   0.0063492
        k(   22) = (   0.2000000   0.0000000   0.1111111), wk =   0.0063492
        k(   23) = (   0.2000000   0.0000000   0.2222222), wk =   0.0063492
        k(   24) = (   0.2000000   0.0000000   0.3333333), wk =   0.0063492
        k(   25) = (   0.2000000   0.0000000   0.4444444), wk =   0.0063492
        k(   26) = (   0.2000000   0.1428571   0.0000000), wk =   0.0063492
        k(   27) = (   0.2000000   0.1428571   0.1111111), wk =   0.0063492
        k(   28) = (   0.2000000   0.1428571   0.2222222), wk =   0.0063492
        k(   29) = (   0.2000000   0.1428571   0.3333333), wk =   0.0063492
        k(   30) = (   0.2000000   0.1428571   0.4444444), wk =   0.0063492
        k(   31) = (   0.2000000   0.2857143   0.0000000), wk =   0.0063492
        k(   32) = (   0.2000000   0.2857143   0.1111111), wk =   0.0063492
        k(   33) = (   0.2000000   0.2857143   0.2222222), wk =   0.0063492
        k(   34) = (   0.2000000   0.2857143   0.3333333), wk =   0.0063492
        k(   35) = (   0.2000000   0.2857143   0.4444444), wk =   0.0063492
        k(   36) = (   0.2000000   0.4285714   0.0000000), wk =   0.0063492
        k(   37) = (   0.2000000   0.4285714   0.1111111), wk =   0.0063492
        k(   38) = (   0.2000000   0.4285714   0.2222222), wk =   0.0063492
        k(   39) = (   0.2000000   0.4285714   0.3333333), wk =   0.0063492
        k(   40) = (   0.2000000   0.4285714   0.4444444), wk =   0.0063492
        k(   41) = (   0.4000000   0.0000000   0.0000000), wk =   0.0063492
        k(   42) = (   0.4000000   0.0000000   0.1111111), wk =   0.0063492
        k(   43) = (   0.4000000   0.0000000   0.2222222), wk =   0.0063492
        k(   44) = (   0.4000000   0.0000000   0.3333333), wk =   0.0063492
        k(   45) = (   0.4000000   0.0000000   0.4444444), wk =   0.0063492
        k(   46) = (   0.4000000   0.1428571   0.0000000), wk =   0.0063492
        k(   47) = (   0.4000000   0.1428571   0.1111111), wk =   0.0063492
        k(   48) = (   0.4000000   0.1428571   0.2222222), wk =   0.0063492
        k(   49) = (   0.4000000   0.1428571   0.3333333), wk =   0.0063492
        k(   50) = (   0.4000000   0.1428571   0.4444444), wk =   0.0063492
        k(   51) = (   0.4000000   0.2857143   0.0000000), wk =   0.0063492
        k(   52) = (   0.4000000   0.2857143   0.1111111), wk =   0.0063492
        k(   53) = (   0.4000000   0.2857143   0.2222222), wk =   0.0063492
        k(   54) = (   0.4000000   0.2857143   0.3333333), wk =   0.0063492
        k(   55) = (   0.4000000   0.2857143   0.4444444), wk =   0.0063492
        k(   56) = (   0.4000000   0.4285714   0.0000000), wk =   0.0063492
        k(   57) = (   0.4000000   0.4285714   0.1111111), wk =   0.0063492
        k(   58) = (   0.4000000   0.4285714   0.2222222), wk =   0.0063492
        k(   59) = (   0.4000000   0.4285714   0.3333333), wk =   0.0063492
        k(   60) = (   0.4000000   0.4285714   0.4444444), wk =   0.0063492
        k(   61) = (   0.0000000  -0.1428571   0.1111111), wk =   0.0063492
        k(   62) = (   0.0000000  -0.1428571   0.2222222), wk =   0.0063492
        k(   63) = (   0.0000000  -0.1428571   0.3333333), wk =   0.0063492
        k(   64) = (   0.0000000  -0.1428571   0.4444444), wk =   0.0063492
        k(   65) = (   0.0000000  -0.2857143   0.1111111), wk =   0.0063492
        k(   66) = (   0.0000000  -0.2857143   0.2222222), wk =   0.0063492
        k(   67) = (   0.0000000  -0.2857143   0.3333333), wk =   0.0063492
        k(   68) = (   0.0000000  -0.2857143   0.4444444), wk =   0.0063492
        k(   69) = (   0.0000000  -0.4285714   0.1111111), wk =   0.0063492
        k(   70) = (   0.0000000  -0.4285714   0.2222222), wk =   0.0063492
        k(   71) = (   0.0000000  -0.4285714   0.3333333), wk =   0.0063492
        k(   72) = (   0.0000000  -0.4285714   0.4444444), wk =   0.0063492
        k(   73) = (  -0.2000000   0.0000000   0.1111111), wk =   0.0063492
        k(   74) = (  -0.2000000   0.0000000   0.2222222), wk =   0.0063492
        k(   75) = (  -0.2000000   0.0000000   0.3333333), wk =   0.0063492
        k(   76) = (  -0.2000000   0.0000000   0.4444444), wk =   0.0063492
        k(   77) = (  -0.2000000   0.1428571   0.0000000), wk =   0.0063492
        k(   78) = (  -0.2000000  -0.1428571   0.1111111), wk =   0.0063492
        k(   79) = (  -0.2000000   0.1428571  -0.1111111), wk =   0.0063492
        k(   80) = (   0.2000000  -0.1428571  -0.1111111), wk =   0.0063492
        k(   81) = (  -0.2000000  -0.1428571   0.2222222), wk =   0.0063492
        k(   82) = (  -0.2000000   0.1428571  -0.2222222), wk =   0.0063492
        k(   83) = (   0.2000000  -0.1428571  -0.2222222), wk =   0.0063492
        k(   84) = (  -0.2000000  -0.1428571   0.3333333), wk =   0.0063492
        k(   85) = (  -0.2000000   0.1428571  -0.3333333), wk =   0.0063492
        k(   86) = (   0.2000000  -0.1428571  -0.3333333), wk =   0.0063492
        k(   87) = (  -0.2000000  -0.1428571   0.4444444), wk =   0.0063492
        k(   88) = (  -0.2000000   0.1428571  -0.4444444), wk =   0.0063492
        k(   89) = (   0.2000000  -0.1428571  -0.4444444), wk =   0.0063492
        k(   90) = (  -0.2000000   0.2857143   0.0000000), wk =   0.0063492
        k(   91) = (  -0.2000000  -0.2857143   0.1111111), wk =   0.0063492
        k(   92) = (  -0.2000000   0.2857143  -0.1111111), wk =   0.0063492
        k(   93) = (   0.2000000  -0.2857143  -0.1111111), wk =   0.0063492
        k(   94) = (  -0.2000000  -0.2857143   0.2222222), wk =   0.0063492
        k(   95) = (  -0.2000000   0.2857143  -0.2222222), wk =   0.0063492
        k(   96) = (   0.2000000  -0.2857143  -0.2222222), wk =   0.0063492
        k(   97) = (  -0.2000000  -0.2857143   0.3333333), wk =   0.0063492
        k(   98) = (  -0.2000000   0.2857143  -0.3333333), wk =   0.0063492
        k(   99) = (   0.2000000  -0.2857143  -0.3333333), wk =   0.0063492
        k(  100) = (  -0.2000000  -0.2857143   0.4444444), wk =   0.0063492
        k(  101) = (  -0.2000000   0.2857143  -0.4444444), wk =   0.0063492
        k(  102) = (   0.2000000  -0.2857143  -0.4444444), wk =   0.0063492
        k(  103) = (  -0.2000000   0.4285714   0.0000000), wk =   0.0063492
        k(  104) = (  -0.2000000  -0.4285714   0.1111111), wk =   0.0063492
        k(  105) = (  -0.2000000   0.4285714  -0.1111111), wk =   0.0063492
        k(  106) = (   0.2000000  -0.4285714  -0.1111111), wk =   0.0063492
        k(  107) = (  -0.2000000  -0.4285714   0.2222222), wk =   0.0063492
        k(  108) = (  -0.2000000   0.4285714  -0.2222222), wk =   0.0063492
        k(  109) = (   0.2000000  -0.4285714  -0.2222222), wk =   0.0063492
        k(  110) = (  -0.2000000  -0.4285714   0.3333333), wk =   0.0063492
        k(  111) = (  -0.2000000   0.4285714  -0.3333333), wk =   0.0063492
        k(  112) = (   0.2000000  -0.4285714  -0.3333333), wk =   0.0063492
        k(  113) = (  -0.2000000  -0.4285714   0.4444444), wk =   0.0063492
        k(  114) = (  -0.2000000   0.4285714  -0.4444444), wk =   0.0063492
        k(  115) = (   0.2000000  -0.4285714  -0.4444444), wk =   0.0063492
        k(  116) = (  -0.4000000   0.0000000   0.1111111), wk =   0.0063492
        k(  117) = (  -0.4000000   0.0000000   0.2222222), wk =   0.0063492
        k(  118) = (  -0.4000000   0.0000000   0.3333333), wk =   0.0063492
        k(  119) = (  -0.4000000   0.0000000   0.4444444), wk =   0.0063492
        k(  120) = (  -0.4000000   0.1428571   0.0000000), wk =   0.0063492
        k(  121) = (  -0.4000000  -0.1428571   0.1111111), wk =   0.0063492
        k(  122) = (  -0.4000000   0.1428571  -0.1111111), wk =   0.0063492
        k(  123) = (   0.4000000  -0.1428571  -0.1111111), wk =   0.0063492
        k(  124) = (  -0.4000000  -0.1428571   0.2222222), wk =   0.0063492
        k(  125) = (  -0.4000000   0.1428571  -0.2222222), wk =   0.0063492
        k(  126) = (   0.4000000  -0.1428571  -0.2222222), wk =   0.0063492
        k(  127) = (  -0.4000000  -0.1428571   0.3333333), wk =   0.0063492
        k(  128) = (  -0.4000000   0.1428571  -0.3333333), wk =   0.0063492
        k(  129) = (   0.4000000  -0.1428571  -0.3333333), wk =   0.0063492
        k(  130) = (  -0.4000000  -0.1428571   0.4444444), wk =   0.0063492
        k(  131) = (  -0.4000000   0.1428571  -0.4444444), wk =   0.0063492
        k(  132) = (   0.4000000  -0.1428571  -0.4444444), wk =   0.0063492
        k(  133) = (  -0.4000000   0.2857143   0.0000000), wk =   0.0063492
        k(  134) = (  -0.4000000  -0.2857143   0.1111111), wk =   0.0063492
        k(  135) = (  -0.4000000   0.2857143  -0.1111111), wk =   0.0063492
        k(  136) = (   0.4000000  -0.2857143  -0.1111111), wk =   0.0063492
        k(  137) = (  -0.4000000  -0.2857143   0.2222222), wk =   0.0063492
        k(  138) = (  -0.4000000   0.2857143  -0.2222222), wk =   0.0063492
        k(  139) = (   0.4000000  -0.2857143  -0.2222222), wk =   0.0063492
        k(  140) = (  -0.4000000  -0.2857143   0.3333333), wk =   0.0063492
        k(  141) = (  -0.4000000   0.2857143  -0.3333333), wk =   0.0063492
        k(  142) = (   0.4000000  -0.2857143  -0.3333333), wk =   0.0063492
        k(  143) = (  -0.4000000  -0.2857143   0.4444444), wk =   0.0063492
        k(  144) = (  -0.4000000   0.2857143  -0.4444444), wk =   0.0063492
        k(  145) = (   0.4000000  -0.2857143  -0.4444444), wk =   0.0063492
        k(  146) = (  -0.4000000   0.4285714   0.0000000), wk =   0.0063492
        k(  147) = (  -0.4000000  -0.4285714   0.1111111), wk =   0.0063492
        k(  148) = (  -0.4000000   0.4285714  -0.1111111), wk =   0.0063492
        k(  149) = (   0.4000000  -0.4285714  -0.1111111), wk =   0.0063492
        k(  150) = (  -0.4000000  -0.4285714   0.2222222), wk =   0.0063492
        k(  151) = (  -0.4000000   0.4285714  -0.2222222), wk =   0.0063492
        k(  152) = (   0.4000000  -0.4285714  -0.2222222), wk =   0.0063492
        k(  153) = (  -0.4000000  -0.4285714   0.3333333), wk =   0.0063492
        k(  154) = (  -0.4000000   0.4285714  -0.3333333), wk =   0.0063492
        k(  155) = (   0.4000000  -0.4285714  -0.3333333), wk =   0.0063492
        k(  156) = (  -0.4000000  -0.4285714   0.4444444), wk =   0.0063492
        k(  157) = (  -0.4000000   0.4285714  -0.4444444), wk =   0.0063492
        k(  158) = (   0.4000000  -0.4285714  -0.4444444), wk =   0.0063492

     Dense  grid:  1251717 G-vectors     FFT dimensions: ( 200, 125, 100)

     Smooth grid:   282189 G-vectors     FFT dimensions: ( 125,  75,  60)

     Dynamical RAM for                 wfc:       5.11 MB

     Dynamical RAM for     wfc (w. buffer):    1620.08 MB

     Dynamical RAM for           str. fact:       6.37 MB

     Dynamical RAM for           local pot:       0.00 MB

     Dynamical RAM for          nlocal pot:      12.55 MB

     Dynamical RAM for                qrad:      10.54 MB

     Dynamical RAM for          rho,v,vnew:      19.85 MB

     Dynamical RAM for               rhoin:       6.62 MB

     Dynamical RAM for            rho*nmix:      50.93 MB

     Dynamical RAM for           G-vectors:       6.15 MB

     Dynamical RAM for          h,s,v(r/c):       2.38 MB

     Dynamical RAM for          <psi|beta>:       0.49 MB

     Dynamical RAM for                 psi:      10.22 MB

     Dynamical RAM for                hpsi:      10.22 MB

     Dynamical RAM for                spsi:      10.22 MB

     Dynamical RAM for      wfcinit/wfcrot:      12.71 MB

     Dynamical RAM for           addusdens:     323.10 MB

     Dynamical RAM for          addusforce:     370.98 MB

     Dynamical RAM for         addusstress:     322.31 MB

     Estimated static dynamical RAM per process >       1.71 GB

     Estimated max dynamical RAM per process >       2.07 GB

     Estimated total dynamical RAM >      24.87 GB

     Check: negative core charge=   -0.000003
     Generating pointlists ...
     new r_m :   0.0775 (alat units)  1.4728 (a.u.) for type    1
     new r_m :   0.0930 (alat units)  1.7681 (a.u.) for type    2
     new r_m :   0.0609 (alat units)  1.1573 (a.u.) for type    3
     new r_m :   0.0609 (alat units)  1.1573 (a.u.) for type    4

     Initial potential from superposition of free atoms

     starting charge  188.99132, renormalised to  189.00000
     Starting wfcs are  137 randomized atomic wfcs
     Checking if some PAW data can be deallocated... 
       PAW data deallocated on   10 nodes for type:  1
       PAW data deallocated on    4 nodes for type:  3

     total cpu time spent up to now is     2476.4 secs

     Self-consistent Calculation

     iteration #  1     ecut=   100.00 Ry     beta= 0.40
     Davidson diagonalization with overlap
     ethr =  1.00E-02,  avg # of iterations =  3.0

     negative rho (up, down):  0.000E+00 8.952E-05

     total cpu time spent up to now is     9800.3 secs

     total energy              =   -2123.97468072 Ry
     estimated scf accuracy    <       6.82008033 Ry

     total magnetization       =    19.00 Bohr mag/cell
     absolute magnetization    =    19.00 Bohr mag/cell

     iteration #  2     ecut=   100.00 Ry     beta= 0.40
     Davidson diagonalization with overlap
     ethr =  3.61E-03,  avg # of iterations =  2.0

     negative rho (up, down):  0.000E+00 5.851E-05

     total cpu time spent up to now is    16588.1 secs

     total energy              =   -2122.50905234 Ry
     estimated scf accuracy    <      19.31393239 Ry

     total magnetization       =    10.27 Bohr mag/cell
     absolute magnetization    =    11.86 Bohr mag/cell

     iteration #  3     ecut=   100.00 Ry     beta= 0.40
     Davidson diagonalization with overlap
     ethr =  3.61E-03,  avg # of iterations =  2.0

     negative rho (up, down):  0.000E+00 5.267E-05

     total cpu time spent up to now is    22269.4 secs

     total energy              =   -2124.50282400 Ry
     estimated scf accuracy    <      35.76146329 Ry

     total magnetization       =    10.62 Bohr mag/cell
     absolute magnetization    =    11.35 Bohr mag/cell

     iteration #  4     ecut=   100.00 Ry     beta= 0.40
     Davidson diagonalization with overlap
     ethr =  3.61E-03,  avg # of iterations =  2.0

     negative rho (up, down):  0.000E+00 9.310E-05

     total cpu time spent up to now is    27808.4 secs

     total energy              =   -2125.63660355 Ry
     estimated scf accuracy    <       5.94807054 Ry

     total magnetization       =    16.45 Bohr mag/cell
     absolute magnetization    =    16.53 Bohr mag/cell

     iteration #  5     ecut=   100.00 Ry     beta= 0.40
     Davidson diagonalization with overlap
     ethr =  3.15E-03,  avg # of iterations =  1.5

     negative rho (up, down):  0.000E+00 1.224E-04

     total cpu time spent up to now is    33166.2 secs

     total energy              =   -2125.64170874 Ry
     estimated scf accuracy    <       8.59796114 Ry

     total magnetization       =    14.85 Bohr mag/cell
     absolute magnetization    =    15.11 Bohr mag/cell

     iteration #  6     ecut=   100.00 Ry     beta= 0.40
     Davidson diagonalization with overlap
     ethr =  3.15E-03,  avg # of iterations =  1.0

     negative rho (up, down):  0.000E+00 1.457E-04

     total cpu time spent up to now is    38387.6 secs

     total energy              =   -2125.80716138 Ry
     estimated scf accuracy    <       3.88473936 Ry

     total magnetization       =    16.75 Bohr mag/cell
     absolute magnetization    =    16.79 Bohr mag/cell

     iteration #  7     ecut=   100.00 Ry     beta= 0.40
     Davidson diagonalization with overlap
     ethr =  2.06E-03,  avg # of iterations =  1.0

     negative rho (up, down):  0.000E+00 2.757E-04

     total cpu time spent up to now is    43608.6 secs

     total energy              =   -2126.05529711 Ry
     estimated scf accuracy    <       0.76407226 Ry

     total magnetization       =    19.03 Bohr mag/cell
     absolute magnetization    =    19.03 Bohr mag/cell

     iteration #  8     ecut=   100.00 Ry     beta= 0.40
     Davidson diagonalization with overlap
     ethr =  4.04E-04,  avg # of iterations =  1.2

     negative rho (up, down):  0.000E+00 4.311E-04

     total cpu time spent up to now is    48855.9 secs

     total energy              =   -2126.05694928 Ry
     estimated scf accuracy    <       0.25597764 Ry

     total magnetization       =    19.00 Bohr mag/cell
     absolute magnetization    =    19.00 Bohr mag/cell

     iteration #  9     ecut=   100.00 Ry     beta= 0.40
     Davidson diagonalization with overlap
     c_bands:  2 eigenvalues not converged
     ethr =  1.35E-04,  avg # of iterations =  6.1

     negative rho (up, down):  0.000E+00 6.701E-04

     total cpu time spent up to now is    54827.3 secs

     total energy              =   -2126.05635297 Ry
     estimated scf accuracy    <       0.25521126 Ry

     total magnetization       =    19.00 Bohr mag/cell
     absolute magnetization    =    19.01 Bohr mag/cell

     iteration # 10     ecut=   100.00 Ry     beta= 0.40
     Davidson diagonalization with overlap
     ethr =  1.35E-04,  avg # of iterations =  2.2

     negative rho (up, down):  0.000E+00 7.477E-04

     total cpu time spent up to now is    60250.6 secs

     total energy              =   -2126.07262785 Ry
     estimated scf accuracy    <       0.12722781 Ry

     total magnetization       =    19.00 Bohr mag/cell
     absolute magnetization    =    19.01 Bohr mag/cell

     iteration # 11     ecut=   100.00 Ry     beta= 0.40
     Davidson diagonalization with overlap
     c_bands:  1 eigenvalues not converged
     c_bands:  1 eigenvalues not converged
     c_bands:  1 eigenvalues not converged
     c_bands:  1 eigenvalues not converged
     ethr =  6.73E-05,  avg # of iterations =  5.4

     negative rho (up, down):  0.000E+00 8.835E-04

     total cpu time spent up to now is    66163.4 secs

     total energy              =   -2126.07564072 Ry
     estimated scf accuracy    <       0.04832381 Ry

     total magnetization       =    19.00 Bohr mag/cell
     absolute magnetization    =    19.02 Bohr mag/cell

     iteration # 12     ecut=   100.00 Ry     beta= 0.40
     Davidson diagonalization with overlap
     c_bands:  2 eigenvalues not converged
     c_bands:  1 eigenvalues not converged
     c_bands:  1 eigenvalues not converged
     c_bands:  1 eigenvalues not converged
     c_bands:  1 eigenvalues not converged
     c_bands:  1 eigenvalues not converged
     c_bands:  1 eigenvalues not converged
     c_bands:  1 eigenvalues not converged
     c_bands:  1 eigenvalues not converged
     c_bands:  1 eigenvalues not converged
     c_bands:  1 eigenvalues not converged
     ethr =  2.56E-05,  avg # of iterations = 10.5

     negative rho (up, down):  0.000E+00 8.788E-04

     total cpu time spent up to now is    73044.1 secs

     total energy              =   -2126.07601832 Ry
     estimated scf accuracy    <       0.08000523 Ry

     total magnetization       =    19.00 Bohr mag/cell
     absolute magnetization    =    19.03 Bohr mag/cell

     iteration # 13     ecut=   100.00 Ry     beta= 0.40
     Davidson diagonalization with overlap
     ethr =  2.56E-05,  avg # of iterations =  1.1

     negative rho (up, down):  0.000E+00 8.985E-04

     total cpu time spent up to now is    78280.7 secs

     total energy              =   -2126.07665889 Ry
     estimated scf accuracy    <       0.01871956 Ry

     total magnetization       =    19.00 Bohr mag/cell
     absolute magnetization    =    19.03 Bohr mag/cell

     iteration # 14     ecut=   100.00 Ry     beta= 0.40
     Davidson diagonalization with overlap
     c_bands:  1 eigenvalues not converged
     c_bands:  1 eigenvalues not converged
     c_bands:  1 eigenvalues not converged
     c_bands:  1 eigenvalues not converged
     c_bands:  1 eigenvalues not converged
     c_bands:  1 eigenvalues not converged
     c_bands:  1 eigenvalues not converged
     c_bands:  1 eigenvalues not converged
     ethr =  9.90E-06,  avg # of iterations =  3.4

     negative rho (up, down):  0.000E+00 8.961E-04

     total cpu time spent up to now is    83865.3 secs

     total energy              =   -2126.07724035 Ry
     estimated scf accuracy    <       0.00468481 Ry

     total magnetization       =    19.00 Bohr mag/cell
     absolute magnetization    =    19.03 Bohr mag/cell

     iteration # 15     ecut=   100.00 Ry     beta= 0.40
     Davidson diagonalization with overlap
     c_bands:  1 eigenvalues not converged
     c_bands:  1 eigenvalues not converged
     c_bands:  1 eigenvalues not converged
     c_bands:  1 eigenvalues not converged
     c_bands:  1 eigenvalues not converged
     c_bands:  1 eigenvalues not converged
     c_bands:  1 eigenvalues not converged
     c_bands:  1 eigenvalues not converged
     c_bands:  1 eigenvalues not converged
     c_bands:  1 eigenvalues not converged
     c_bands:  1 eigenvalues not converged
     c_bands:  1 eigenvalues not converged
     ethr =  2.48E-06,  avg # of iterations =  9.2

     negative rho (up, down):  0.000E+00 8.949E-04

     total cpu time spent up to now is    90579.1 secs

     total energy              =   -2126.07760289 Ry
     estimated scf accuracy    <       0.00090683 Ry

     total magnetization       =    19.00 Bohr mag/cell
     absolute magnetization    =    19.04 Bohr mag/cell

     iteration # 16     ecut=   100.00 Ry     beta= 0.40
     Davidson diagonalization with overlap
     c_bands:  1 eigenvalues not converged
     ethr =  4.80E-07,  avg # of iterations =  4.5

     negative rho (up, down):  0.000E+00 8.908E-04

     total cpu time spent up to now is    97973.0 secs

     total energy              =   -2126.07787488 Ry
     estimated scf accuracy    <       0.00037184 Ry

     total magnetization       =    19.00 Bohr mag/cell
     absolute magnetization    =    19.04 Bohr mag/cell

     iteration # 17     ecut=   100.00 Ry     beta= 0.40
     Davidson diagonalization with overlap
     ethr =  1.97E-07,  avg # of iterations =  1.2

     negative rho (up, down):  0.000E+00 8.899E-04

     total cpu time spent up to now is   103209.0 secs

     total energy              =   -2126.07790019 Ry
     estimated scf accuracy    <       0.00022955 Ry

     total magnetization       =    19.00 Bohr mag/cell
     absolute magnetization    =    19.04 Bohr mag/cell

     iteration # 18     ecut=   100.00 Ry     beta= 0.40
     Davidson diagonalization with overlap
     ethr =  1.21E-07,  avg # of iterations =  1.0

     negative rho (up, down):  0.000E+00 8.861E-04

     total cpu time spent up to now is   108401.1 secs

     total energy              =   -2126.07790491 Ry
     estimated scf accuracy    <       0.00005612 Ry

     total magnetization       =    19.00 Bohr mag/cell
     absolute magnetization    =    19.04 Bohr mag/cell

     iteration # 19     ecut=   100.00 Ry     beta= 0.40
     Davidson diagonalization with overlap
     ethr =  2.97E-08,  avg # of iterations =  1.4

     negative rho (up, down):  0.000E+00 8.836E-04

     total cpu time spent up to now is   113716.4 secs

     total energy              =   -2126.07790913 Ry
     estimated scf accuracy    <       0.00000425 Ry

     total magnetization       =    19.00 Bohr mag/cell
     absolute magnetization    =    19.04 Bohr mag/cell

     iteration # 20     ecut=   100.00 Ry     beta= 0.40
     Davidson diagonalization with overlap
     ethr =  2.25E-09,  avg # of iterations =  3.4

     negative rho (up, down):  0.000E+00 8.827E-04

     total cpu time spent up to now is   120733.3 secs

     total energy              =   -2126.07791070 Ry
     estimated scf accuracy    <       0.00000946 Ry

     total magnetization       =    19.00 Bohr mag/cell
     absolute magnetization    =    19.04 Bohr mag/cell

     iteration # 21     ecut=   100.00 Ry     beta= 0.40
     Davidson diagonalization with overlap
     ethr =  2.25E-09,  avg # of iterations =  2.0

     negative rho (up, down):  0.000E+00 8.830E-04

     total cpu time spent up to now is   126279.3 secs

     total energy              =   -2126.07791135 Ry
     estimated scf accuracy    <       0.00000253 Ry

     total magnetization       =    19.00 Bohr mag/cell
     absolute magnetization    =    19.04 Bohr mag/cell

     iteration # 22     ecut=   100.00 Ry     beta= 0.40
     Davidson diagonalization with overlap
     ethr =  1.34E-09,  avg # of iterations =  1.3

     negative rho (up, down):  0.000E+00 8.830E-04

     total cpu time spent up to now is   131566.2 secs

     total energy              =   -2126.07791161 Ry
     estimated scf accuracy    <       0.00000139 Ry

     total magnetization       =    19.00 Bohr mag/cell
     absolute magnetization    =    19.04 Bohr mag/cell

     iteration # 23     ecut=   100.00 Ry     beta= 0.40
     Davidson diagonalization with overlap
     ethr =  7.38E-10,  avg # of iterations =  1.4

     negative rho (up, down):  0.000E+00 8.835E-04

     total cpu time spent up to now is   136885.1 secs

     total energy              =   -2126.07791171 Ry
     estimated scf accuracy    <       0.00000031 Ry

     total magnetization       =    19.00 Bohr mag/cell
     absolute magnetization    =    19.04 Bohr mag/cell

     iteration # 24     ecut=   100.00 Ry     beta= 0.40
     Davidson diagonalization with overlap
     ethr =  1.62E-10,  avg # of iterations =  3.3

     negative rho (up, down):  0.000E+00 8.838E-04

     total cpu time spent up to now is   143252.4 secs

     total energy              =   -2126.07791192 Ry
     estimated scf accuracy    <       0.00000041 Ry

     total magnetization       =    19.00 Bohr mag/cell
     absolute magnetization    =    19.04 Bohr mag/cell

     iteration # 25     ecut=   100.00 Ry     beta= 0.40
     Davidson diagonalization with overlap
     ethr =  1.62E-10,  avg # of iterations =  1.5

     negative rho (up, down):  0.000E+00 8.839E-04

     total cpu time spent up to now is   148593.4 secs

     total energy              =   -2126.07791195 Ry
     estimated scf accuracy    <       0.00000015 Ry

     total magnetization       =    19.00 Bohr mag/cell
     absolute magnetization    =    19.04 Bohr mag/cell

     iteration # 26     ecut=   100.00 Ry     beta= 0.40
     Davidson diagonalization with overlap
     ethr =  7.77E-11,  avg # of iterations =  1.9

     negative rho (up, down):  0.000E+00 8.838E-04

     total cpu time spent up to now is   154106.5 secs

     total energy              =   -2126.07791197 Ry
     estimated scf accuracy    <       0.00000002 Ry

     total magnetization       =    19.00 Bohr mag/cell
     absolute magnetization    =    19.04 Bohr mag/cell

     iteration # 27     ecut=   100.00 Ry     beta= 0.40
     Davidson diagonalization with overlap
     ethr =  1.12E-11,  avg # of iterations =  4.4

     negative rho (up, down):  0.000E+00 8.837E-04

     total cpu time spent up to now is   161359.7 secs

     total energy              =   -2126.07791198 Ry
     estimated scf accuracy    <       0.00000002 Ry

     total magnetization       =    19.00 Bohr mag/cell
     absolute magnetization    =    19.04 Bohr mag/cell

     iteration # 28     ecut=   100.00 Ry     beta= 0.40
     Davidson diagonalization with overlap
     ethr =  1.12E-11,  avg # of iterations =  2.0

     negative rho (up, down):  0.000E+00 8.837E-04

     total cpu time spent up to now is   166855.0 secs

     total energy              =   -2126.07791198 Ry
     estimated scf accuracy    <       0.00000003 Ry

     total magnetization       =    19.00 Bohr mag/cell
     absolute magnetization    =    19.04 Bohr mag/cell

     iteration # 29     ecut=   100.00 Ry     beta= 0.40
     Davidson diagonalization with overlap
     ethr =  1.12E-11,  avg # of iterations =  1.0

     negative rho (up, down):  0.000E+00 8.837E-04

     total cpu time spent up to now is   172091.1 secs

     total energy              =   -2126.07791199 Ry
     estimated scf accuracy    <       0.00000001 Ry

     total magnetization       =    19.00 Bohr mag/cell
     absolute magnetization    =    19.04 Bohr mag/cell

     iteration # 30     ecut=   100.00 Ry     beta= 0.40
     Davidson diagonalization with overlap
     ethr =  6.20E-12,  avg # of iterations =  1.5

     negative rho (up, down):  0.000E+00 8.837E-04

     total cpu time spent up to now is   177436.7 secs

     total energy              =   -2126.07791199 Ry
     estimated scf accuracy    <          4.1E-09 Ry

     total magnetization       =    19.00 Bohr mag/cell
     absolute magnetization    =    19.04 Bohr mag/cell

     iteration # 31     ecut=   100.00 Ry     beta= 0.40
     Davidson diagonalization with overlap
     ethr =  2.17E-12,  avg # of iterations =  1.3

     negative rho (up, down):  0.000E+00 8.837E-04

     total cpu time spent up to now is   182724.9 secs

     total energy              =   -2126.07791199 Ry
     estimated scf accuracy    <          4.5E-09 Ry

     total magnetization       =    19.00 Bohr mag/cell
     absolute magnetization    =    19.04 Bohr mag/cell

     iteration # 32     ecut=   100.00 Ry     beta= 0.40
     Davidson diagonalization with overlap
     ethr =  2.17E-12,  avg # of iterations =  1.0

     negative rho (up, down):  0.000E+00 8.837E-04

     total cpu time spent up to now is   187957.2 secs

     total energy              =   -2126.07791199 Ry
     estimated scf accuracy    <          1.8E-09 Ry

     total magnetization       =    19.00 Bohr mag/cell
     absolute magnetization    =    19.04 Bohr mag/cell

     iteration # 33     ecut=   100.00 Ry     beta= 0.40
     Davidson diagonalization with overlap
     ethr =  9.49E-13,  avg # of iterations =  1.1

     negative rho (up, down):  0.000E+00 8.837E-04

     total cpu time spent up to now is   193143.6 secs

     total energy              =   -2126.07791199 Ry
     estimated scf accuracy    <          3.0E-10 Ry

     total magnetization       =    19.00 Bohr mag/cell
     absolute magnetization    =    19.04 Bohr mag/cell

     iteration # 34     ecut=   100.00 Ry     beta= 0.40
     Davidson diagonalization with overlap
     ethr =  1.56E-13,  avg # of iterations =  3.3

     negative rho (up, down):  0.000E+00 8.837E-04

     Magnetic moment per site:
     atom:    1    charge:    7.9387    magn:    0.0017    constr:    0.0000
     atom:    2    charge:   12.7998    magn:    3.6272    constr:    0.0000
     atom:    3    charge:   12.8188    magn:    3.5479    constr:    0.0000
     atom:    4    charge:   12.8101    magn:    3.5851    constr:    0.0000
     atom:    5    charge:   12.8056    magn:    3.5980    constr:    0.0000
     atom:    6    charge:    0.7651    magn:    0.0113    constr:    0.0000
     atom:    7    charge:    0.7582    magn:    0.0115    constr:    0.0000
     atom:    8    charge:    0.7637    magn:    0.0094    constr:    0.0000
     atom:    9    charge:    0.7593    magn:    0.0115    constr:    0.0000
     atom:   10    charge:    4.1036    magn:    0.1096    constr:    0.0000
     atom:   11    charge:    4.0861    magn:    0.1084    constr:    0.0000
     atom:   12    charge:    4.0761    magn:    0.1535    constr:    0.0000
     atom:   13    charge:    4.0821    magn:    0.1103    constr:    0.0000
     atom:   14    charge:    4.1211    magn:    0.1157    constr:    0.0000
     atom:   15    charge:    4.1130    magn:    0.0855    constr:    0.0000
     atom:   16    charge:    4.1131    magn:    0.1090    constr:    0.0000
     atom:   17    charge:    4.1003    magn:    0.1016    constr:    0.0000
     atom:   18    charge:    4.0932    magn:    0.1299    constr:    0.0000
     atom:   19    charge:    4.0751    magn:    0.1446    constr:    0.0000
     atom:   20    charge:    4.0730    magn:    0.1098    constr:    0.0000
     atom:   21    charge:    4.0842    magn:    0.1565    constr:    0.0000
     atom:   22    charge:    4.0963    magn:    0.1256    constr:    0.0000
     atom:   23    charge:    4.0712    magn:    0.1411    constr:    0.0000
     atom:   24    charge:    4.0717    magn:    0.1082    constr:    0.0000
     atom:   25    charge:    4.0706    magn:    0.1486    constr:    0.0000

     total cpu time spent up to now is   199432.6 secs

     End of self-consistent calculation

 ------ SPIN UP ------------


          k = 0.0000 0.0000 0.0000 ( 35285 PWs)   bands (ev):

   -84.7571 -84.7023 -84.5431 -84.2975 -50.8434 -50.8407 -50.8022 -50.7556
   -50.6747 -50.6511 -50.6114 -50.5138 -50.4903 -50.3493 -50.2827 -50.1218
   -44.0792 -16.2890 -16.2057 -16.1025 -16.0862 -15.9739 -15.8248 -15.6459
   -13.8803 -13.6512 -13.5932 -13.4806 -13.4650 -13.3424 -13.3039 -13.2462
   -13.1633 -13.1172 -13.0426 -13.0050  -4.1122  -3.5564  -3.4022  -3.0879
    -2.0752  -1.8983  -1.7626  -1.6368  -1.3390  -1.1901  -1.0521  -0.9996
    -0.9112  -0.8694  -0.7913  -0.5972   0.0520   0.1847   0.3364   0.5619
     0.6384   0.7134   0.8402   0.9347   0.9800   1.0357   1.0781   1.1526
     1.3791   1.4651   1.6097   1.7513   1.9077   2.0377   2.0712   2.1673
     2.2149   2.3159   2.4993   2.5328   2.6466   2.7337   2.7857   2.8255
     3.0443   3.1113   3.2076   3.3128   3.3661   3.4548   3.4705   3.5730
     3.7694   3.8344   3.9482   4.0143   4.0249   4.1227   4.2784   4.4082
     4.4287   4.4778   4.6474   4.7109   4.7303   4.9997   5.2467   5.6393
     9.7494  11.6588  11.9655  12.5991  12.8637  13.6295  13.7957  13.8912
    13.9987  14.1491

     occupation numbers 
     1.0000   1.0000   1.0000   1.0000   1.0000   1.0000   1.0000   1.0000
     1.0000   1.0000   1.0000   1.0000   1.0000   1.0000   1.0000   1.0000
     1.0000   1.0000   1.0000   1.0000   1.0000   1.0000   1.0000   1.0000
     1.0000   1.0000   1.0000   1.0000   1.0000   1.0000   1.0000   1.0000
     1.0000   1.0000   1.0000   1.0000   1.0000   1.0000   1.0000   1.0000
     1.0000   1.0000   1.0000   1.0000   1.0000   1.0000   1.0000   1.0000
     1.0000   1.0000   1.0000   1.0000   1.0000   1.0000   1.0000   1.0000
     1.0000   1.0000   1.0000   1.0000   1.0000   1.0000   1.0000   1.0000
     1.0000   1.0000   1.0000   1.0000   1.0000   1.0000   1.0000   1.0000
     1.0000   1.0000   1.0000   1.0000   1.0000   1.0000   1.0000   1.0000
     1.0000   1.0000   1.0000   1.0000   1.0000   1.0000   1.0000   1.0000
     1.0000   1.0000   1.0000   1.0000   1.0000   1.0000   1.0000   1.0000
     1.0000   1.0000   1.0000   1.0000   1.0000   1.0000   1.0000   1.0000
     0.0000   0.0000   0.0000   0.0000   0.0000   0.0000   0.0000   0.0000
     0.0000   0.0000

          k = 0.0000 0.0000 0.2259 ( 35287 PWs)   bands (ev):

   -84.7571 -84.7023 -84.5431 -84.2975 -50.8434 -50.8407 -50.8022 -50.7556
   -50.6747 -50.6511 -50.6114 -50.5138 -50.4903 -50.3493 -50.2827 -50.1218
   -44.0792 -16.2927 -16.1995 -16.1048 -16.0845 -15.9594 -15.8172 -15.6449
   -13.8848 -13.6598 -13.5934 -13.4783 -13.4643 -13.3488 -13.3161 -13.2528
   -13.1752 -13.1174 -13.0512 -12.9967  -4.0784  -3.5430  -3.3972  -3.0817
    -2.0611  -1.9116  -1.7547  -1.6004  -1.3402  -1.1942  -1.0435  -0.9957
    -0.8939  -0.8607  -0.8197  -0.5816   0.0712   0.1994   0.3348   0.5489
     0.6216   0.7320   0.8133   0.8728   1.0028   1.0660   1.0880   1.1645
     1.3636   1.4603   1.6288   1.7535   1.9011   2.0295   2.0836   2.1476
     2.2338   2.3238   2.4472   2.5501   2.6211   2.6889   2.7585   2.8455
     3.0277   3.1092   3.1937   3.2769   3.3862   3.4138   3.4852   3.5745
     3.7280   3.8730   3.9653   3.9941   4.0178   4.1188   4.2930   4.3942
     4.4080   4.5166   4.6331   4.7101   4.7430   4.9983   5.2453   5.6287
     9.8944  11.7241  12.0215  12.6321  12.9090  13.5915  13.7233  13.8752
    13.9543  14.1096

     occupation numbers 
     1.0000   1.0000   1.0000   1.0000   1.0000   1.0000   1.0000   1.0000
     1.0000   1.0000   1.0000   1.0000   1.0000   1.0000   1.0000   1.0000
     1.0000   1.0000   1.0000   1.0000   1.0000   1.0000   1.0000   1.0000
     1.0000   1.0000   1.0000   1.0000   1.0000   1.0000   1.0000   1.0000
     1.0000   1.0000   1.0000   1.0000   1.0000   1.0000   1.0000   1.0000
     1.0000   1.0000   1.0000   1.0000   1.0000   1.0000   1.0000   1.0000
     1.0000   1.0000   1.0000   1.0000   1.0000   1.0000   1.0000   1.0000
     1.0000   1.0000   1.0000   1.0000   1.0000   1.0000   1.0000   1.0000
     1.0000   1.0000   1.0000   1.0000   1.0000   1.0000   1.0000   1.0000
     1.0000   1.0000   1.0000   1.0000   1.0000   1.0000   1.0000   1.0000
     1.0000   1.0000   1.0000   1.0000   1.0000   1.0000   1.0000   1.0000
     1.0000   1.0000   1.0000   1.0000   1.0000   1.0000   1.0000   1.0000
     1.0000   1.0000   1.0000   1.0000   1.0000   1.0000   1.0000   1.0000
     0.0000   0.0000   0.0000   0.0000   0.0000   0.0000   0.0000   0.0000
     0.0000   0.0000

          k = 0.0000 0.0000 0.4519 ( 35272 PWs)   bands (ev):

   -84.7571 -84.7023 -84.5431 -84.2975 -50.8434 -50.8407 -50.8022 -50.7556
   -50.6747 -50.6511 -50.6114 -50.5138 -50.4903 -50.3493 -50.2827 -50.1218
   -44.0792 -16.3011 -16.1912 -16.0977 -16.0816 -15.9266 -15.7971 -15.6439
   -13.8968 -13.6834 -13.5946 -13.4732 -13.4622 -13.3647 -13.3467 -13.2713
   -13.1966 -13.1240 -13.0637 -12.9846  -3.9892  -3.5054  -3.3828  -3.0826
    -2.0554  -1.8991  -1.7080  -1.5476  -1.3440  -1.2009  -1.0432  -0.9800
    -0.8849  -0.8497  -0.8005  -0.5703   0.1024   0.2391   0.3595   0.5115
     0.5917   0.7255   0.8173   0.8584   0.9864   1.0704   1.1227   1.2219
     1.3304   1.4740   1.6222   1.7494   1.8875   1.9857   2.0893   2.1306
     2.2490   2.3137   2.3562   2.4568   2.5822   2.6556   2.7090   2.8706
     2.9768   3.0822   3.1255   3.2202   3.3067   3.4454   3.5357   3.5969
     3.7043   3.8929   3.9332   3.9908   4.0610   4.1420   4.2656   4.3767
     4.4119   4.5395   4.6280   4.7112   4.7715   4.9934   5.2429   5.6041
    10.2871  11.8885  12.1504  12.7414  13.0133  13.3692  13.6415  13.7605
    13.8620  14.0012

     occupation numbers 
     1.0000   1.0000   1.0000   1.0000   1.0000   1.0000   1.0000   1.0000
     1.0000   1.0000   1.0000   1.0000   1.0000   1.0000   1.0000   1.0000
     1.0000   1.0000   1.0000   1.0000   1.0000   1.0000   1.0000   1.0000
     1.0000   1.0000   1.0000   1.0000   1.0000   1.0000   1.0000   1.0000
     1.0000   1.0000   1.0000   1.0000   1.0000   1.0000   1.0000   1.0000
     1.0000   1.0000   1.0000   1.0000   1.0000   1.0000   1.0000   1.0000
     1.0000   1.0000   1.0000   1.0000   1.0000   1.0000   1.0000   1.0000
     1.0000   1.0000   1.0000   1.0000   1.0000   1.0000   1.0000   1.0000
     1.0000   1.0000   1.0000   1.0000   1.0000   1.0000   1.0000   1.0000
     1.0000   1.0000   1.0000   1.0000   1.0000   1.0000   1.0000   1.0000
     1.0000   1.0000   1.0000   1.0000   1.0000   1.0000   1.0000   1.0000
     1.0000   1.0000   1.0000   1.0000   1.0000   1.0000   1.0000   1.0000
     1.0000   1.0000   1.0000   1.0000   1.0000   1.0000   1.0000   1.0000
     0.0000   0.0000   0.0000   0.0000   0.0000   0.0000   0.0000   0.0000
     0.0000   0.0000

          k = 0.0000 0.0000 0.6778 ( 35290 PWs)   bands (ev):

   -84.7571 -84.7023 -84.5431 -84.2975 -50.8434 -50.8407 -50.8022 -50.7556
   -50.6747 -50.6511 -50.6114 -50.5138 -50.4903 -50.3493 -50.2827 -50.1218
   -44.0792 -16.3102 -16.1893 -16.0816 -16.0736 -15.8908 -15.7732 -15.6466
   -13.9104 -13.7147 -13.5966 -13.4693 -13.4578 -13.3914 -13.3693 -13.2963
   -13.2150 -13.1327 -13.0710 -12.9782  -3.8791  -3.4519  -3.3650  -3.1152
    -2.0772  -1.8447  -1.6283  -1.5198  -1.3492  -1.2069  -1.0688  -0.9802
    -0.8704  -0.8062  -0.7370  -0.5902   0.1066   0.2958   0.4168   0.4804
     0.6150   0.7283   0.8130   0.9268   0.9980   1.0810   1.1505   1.2410
     1.3240   1.4874   1.5626   1.7397   1.8660   1.9161   1.9746   2.0760
     2.1333   2.2622   2.3578   2.3733   2.5494   2.6489   2.7062   2.8129
     2.9505   2.9815   3.0908   3.1264   3.2925   3.4969   3.5915   3.6389
     3.6989   3.8851   3.9276   4.0111   4.1282   4.1589   4.2457   4.3423
     4.4059   4.5272   4.6465   4.7348   4.7988   4.9857   5.2425   5.5779
    10.8335  12.0632  12.2736  12.7908  12.9745  13.2807  13.5252  13.5994
    13.7687  13.8941

     occupation numbers 
     1.0000   1.0000   1.0000   1.0000   1.0000   1.0000   1.0000   1.0000
     1.0000   1.0000   1.0000   1.0000   1.0000   1.0000   1.0000   1.0000
     1.0000   1.0000   1.0000   1.0000   1.0000   1.0000   1.0000   1.0000
     1.0000   1.0000   1.0000   1.0000   1.0000   1.0000   1.0000   1.0000
     1.0000   1.0000   1.0000   1.0000   1.0000   1.0000   1.0000   1.0000
     1.0000   1.0000   1.0000   1.0000   1.0000   1.0000   1.0000   1.0000
     1.0000   1.0000   1.0000   1.0000   1.0000   1.0000   1.0000   1.0000
     1.0000   1.0000   1.0000   1.0000   1.0000   1.0000   1.0000   1.0000
     1.0000   1.0000   1.0000   1.0000   1.0000   1.0000   1.0000   1.0000
     1.0000   1.0000   1.0000   1.0000   1.0000   1.0000   1.0000   1.0000
     1.0000   1.0000   1.0000   1.0000   1.0000   1.0000   1.0000   1.0000
     1.0000   1.0000   1.0000   1.0000   1.0000   1.0000   1.0000   1.0000
     1.0000   1.0000   1.0000   1.0000   1.0000   1.0000   1.0000   1.0000
     0.0000   0.0000   0.0000   0.0000   0.0000   0.0000   0.0000   0.0000
     0.0000   0.0000

          k = 0.0000 0.0000 0.9038 ( 35316 PWs)   bands (ev):

   -84.7571 -84.7023 -84.5431 -84.2975 -50.8434 -50.8407 -50.8022 -50.7556
   -50.6747 -50.6511 -50.6114 -50.5138 -50.4903 -50.3493 -50.2827 -50.1218
   -44.0792 -16.3162 -16.1893 -16.0787 -16.0573 -15.8659 -15.7567 -15.6518
   -13.9188 -13.7383 -13.5980 -13.4679 -13.4535 -13.4135 -13.3773 -13.3151
   -13.2253 -13.1374 -13.0733 -12.9768  -3.8000  -3.4103  -3.3430  -3.1660
    -2.0916  -1.8088  -1.5629  -1.5105  -1.3508  -1.2203  -1.0957  -0.9728
    -0.8306  -0.7865  -0.6972  -0.6194   0.1045   0.3463   0.4061   0.4956
     0.7107   0.7476   0.8653   0.9687   1.0291   1.0697   1.1636   1.2577
     1.3347   1.4557   1.4843   1.7035   1.7715   1.8374   1.9074   2.0513
     2.1004   2.1503   2.2539   2.4136   2.5392   2.7053   2.7298   2.7657
     2.8635   2.9611   3.0366   3.0953   3.3071   3.5206   3.6001   3.6458
     3.7686   3.8734   3.9453   4.0386   4.0905   4.2119   4.2683   4.3132
     4.3864   4.5023   4.6665   4.7579   4.8164   4.9796   5.2450   5.5597
    11.4108  12.0637  12.3057  12.4829  13.0529  13.4095  13.4834  13.5377
    13.6950  13.7727

     occupation numbers 
     1.0000   1.0000   1.0000   1.0000   1.0000   1.0000   1.0000   1.0000
     1.0000   1.0000   1.0000   1.0000   1.0000   1.0000   1.0000   1.0000
     1.0000   1.0000   1.0000   1.0000   1.0000   1.0000   1.0000   1.0000
     1.0000   1.0000   1.0000   1.0000   1.0000   1.0000   1.0000   1.0000
     1.0000   1.0000   1.0000   1.0000   1.0000   1.0000   1.0000   1.0000
     1.0000   1.0000   1.0000   1.0000   1.0000   1.0000   1.0000   1.0000
     1.0000   1.0000   1.0000   1.0000   1.0000   1.0000   1.0000   1.0000
     1.0000   1.0000   1.0000   1.0000   1.0000   1.0000   1.0000   1.0000
     1.0000   1.0000   1.0000   1.0000   1.0000   1.0000   1.0000   1.0000
     1.0000   1.0000   1.0000   1.0000   1.0000   1.0000   1.0000   1.0000
     1.0000   1.0000   1.0000   1.0000   1.0000   1.0000   1.0000   1.0000
     1.0000   1.0000   1.0000   1.0000   1.0000   1.0000   1.0000   1.0000
     1.0000   1.0000   1.0000   1.0000   1.0000   1.0000   1.0000   1.0000
     0.0000   0.0000   0.0000   0.0000   0.0000   0.0000   0.0000   0.0000
     0.0000   0.0000

          k = 0.0000 0.2311 0.0000 ( 35259 PWs)   bands (ev):

   -84.7571 -84.7023 -84.5431 -84.2975 -50.8434 -50.8407 -50.8022 -50.7556
   -50.6747 -50.6511 -50.6114 -50.5138 -50.4903 -50.3493 -50.2827 -50.1218
   -44.0792 -16.3181 -16.1824 -16.1021 -16.0867 -15.9463 -15.8241 -15.6580
   -13.8841 -13.6571 -13.5947 -13.4948 -13.4562 -13.3448 -13.2994 -13.2495
   -13.1645 -13.1227 -13.0416 -13.0028  -4.0788  -3.5299  -3.4143  -3.0860
    -2.0551  -1.8684  -1.7590  -1.6175  -1.3338  -1.1974  -1.0392  -1.0054
    -0.9079  -0.8394  -0.7754  -0.5881   0.0419   0.1709   0.3283   0.5317
     0.5623   0.7139   0.8079   0.8527   0.9714   1.0493   1.1352   1.2330
     1.3708   1.4795   1.5919   1.7779   1.9133   1.9953   2.0642   2.1243
     2.1773   2.2975   2.4533   2.5314   2.6116   2.6949   2.7784   2.8987
     3.0439   3.1076   3.2037   3.2447   3.3757   3.4181   3.5041   3.5530
     3.7561   3.8384   3.9052   3.9940   4.0648   4.1272   4.2678   4.3576
     4.4162   4.4741   4.6397   4.7046   4.8297   5.0896   5.3139   5.6457
     9.9032  11.7382  12.0594  12.5501  12.8414  13.5419  13.6737  13.8370
    14.0761  14.1635

     occupation numbers 
     1.0000   1.0000   1.0000   1.0000   1.0000   1.0000   1.0000   1.0000
     1.0000   1.0000   1.0000   1.0000   1.0000   1.0000   1.0000   1.0000
     1.0000   1.0000   1.0000   1.0000   1.0000   1.0000   1.0000   1.0000
     1.0000   1.0000   1.0000   1.0000   1.0000   1.0000   1.0000   1.0000
     1.0000   1.0000   1.0000   1.0000   1.0000   1.0000   1.0000   1.0000
     1.0000   1.0000   1.0000   1.0000   1.0000   1.0000   1.0000   1.0000
     1.0000   1.0000   1.0000   1.0000   1.0000   1.0000   1.0000   1.0000
     1.0000   1.0000   1.0000   1.0000   1.0000   1.0000   1.0000   1.0000
     1.0000   1.0000   1.0000   1.0000   1.0000   1.0000   1.0000   1.0000
     1.0000   1.0000   1.0000   1.0000   1.0000   1.0000   1.0000   1.0000
     1.0000   1.0000   1.0000   1.0000   1.0000   1.0000   1.0000   1.0000
     1.0000   1.0000   1.0000   1.0000   1.0000   1.0000   1.0000   1.0000
     1.0000   1.0000   1.0000   1.0000   1.0000   1.0000   1.0000   1.0000
     0.0000   0.0000   0.0000   0.0000   0.0000   0.0000   0.0000   0.0000
     0.0000   0.0000

          k = 0.0000 0.2311 0.2259 ( 35237 PWs)   bands (ev):

   -84.7571 -84.7023 -84.5430 -84.2975 -50.8434 -50.8407 -50.8022 -50.7556
   -50.6747 -50.6511 -50.6114 -50.5138 -50.4903 -50.3493 -50.2827 -50.1218
   -44.0792 -16.3011 -16.2097 -16.0957 -16.0856 -15.9310 -15.8193 -15.6490
   -13.8860 -13.6662 -13.6019 -13.4873 -13.4610 -13.3546 -13.3195 -13.2530
   -13.1632 -13.1155 -13.0509 -13.0031  -4.0531  -3.5160  -3.4028  -3.0730
    -2.0430  -1.8854  -1.7484  -1.5777  -1.3245  -1.1706  -1.0720  -0.9617
    -0.9296  -0.8512  -0.8068  -0.5555   0.0696   0.1760   0.3150   0.5329
     0.6055   0.7259   0.7765   0.8569   0.9446   1.0204   1.1343   1.2464
     1.3373   1.4346   1.5953   1.7737   1.8792   2.0024   2.0587   2.1774
     2.2029   2.2890   2.3977   2.5736   2.6255   2.6912   2.7794   2.8805
     3.0431   3.1236   3.1748   3.2236   3.3593   3.3807   3.4681   3.5569
     3.7420   3.8200   3.9348   3.9900   4.0294   4.1547   4.2577   4.3501
     4.3957   4.5110   4.6405   4.7251   4.8314   5.0947   5.3144   5.6302
    10.0444  11.8141  12.1154  12.5656  12.8858  13.5427  13.6202  13.8574
    13.9819  14.0898

     occupation numbers 
     1.0000   1.0000   1.0000   1.0000   1.0000   1.0000   1.0000   1.0000
     1.0000   1.0000   1.0000   1.0000   1.0000   1.0000   1.0000   1.0000
     1.0000   1.0000   1.0000   1.0000   1.0000   1.0000   1.0000   1.0000
     1.0000   1.0000   1.0000   1.0000   1.0000   1.0000   1.0000   1.0000
     1.0000   1.0000   1.0000   1.0000   1.0000   1.0000   1.0000   1.0000
     1.0000   1.0000   1.0000   1.0000   1.0000   1.0000   1.0000   1.0000
     1.0000   1.0000   1.0000   1.0000   1.0000   1.0000   1.0000   1.0000
     1.0000   1.0000   1.0000   1.0000   1.0000   1.0000   1.0000   1.0000
     1.0000   1.0000   1.0000   1.0000   1.0000   1.0000   1.0000   1.0000
     1.0000   1.0000   1.0000   1.0000   1.0000   1.0000   1.0000   1.0000
     1.0000   1.0000   1.0000   1.0000   1.0000   1.0000   1.0000   1.0000
     1.0000   1.0000   1.0000   1.0000   1.0000   1.0000   1.0000   1.0000
     1.0000   1.0000   1.0000   1.0000   1.0000   1.0000   1.0000   1.0000
     0.0000   0.0000   0.0000   0.0000   0.0000   0.0000   0.0000   0.0000
     0.0000   0.0000

          k = 0.0000 0.2311 0.4519 ( 35268 PWs)   bands (ev):

   -84.7571 -84.7023 -84.5431 -84.2975 -50.8434 -50.8407 -50.8022 -50.7556
   -50.6747 -50.6511 -50.6114 -50.5138 -50.4903 -50.3493 -50.2827 -50.1218
   -44.0792 -16.2863 -16.2316 -16.0855 -16.0812 -15.8996 -15.8019 -15.6399
   -13.8965 -13.6861 -13.6093 -13.4804 -13.4622 -13.3831 -13.3468 -13.2658
   -13.1863 -13.1125 -13.0649 -12.9928  -3.9708  -3.4809  -3.3817  -3.0579
    -2.0416  -1.8886  -1.6922  -1.5238  -1.3228  -1.1405  -1.0970  -0.9301
    -0.9071  -0.8720  -0.8168  -0.5330   0.0797   0.2213   0.3375   0.5213
     0.6176   0.6998   0.7889   0.8240   0.9362   1.0373   1.1478   1.2389
     1.3362   1.4265   1.5746   1.7394   1.8692   1.9747   2.0572   2.1488
     2.2455   2.2916   2.3375   2.4845   2.6156   2.6838   2.7344   2.9021
     2.9836   3.0592   3.1491   3.2002   3.2767   3.3764   3.4781   3.5637
     3.7253   3.8062   3.9256   3.9706   4.0569   4.1917   4.2403   4.3436
     4.4147   4.5301   4.6602   4.7232   4.8472   5.1022   5.3016   5.6070
    10.4241  11.9853  12.2327  12.6609  13.0008  13.3607  13.5621  13.7988
    13.8682  13.9918

     occupation numbers 
     1.0000   1.0000   1.0000   1.0000   1.0000   1.0000   1.0000   1.0000
     1.0000   1.0000   1.0000   1.0000   1.0000   1.0000   1.0000   1.0000
     1.0000   1.0000   1.0000   1.0000   1.0000   1.0000   1.0000   1.0000
     1.0000   1.0000   1.0000   1.0000   1.0000   1.0000   1.0000   1.0000
     1.0000   1.0000   1.0000   1.0000   1.0000   1.0000   1.0000   1.0000
     1.0000   1.0000   1.0000   1.0000   1.0000   1.0000   1.0000   1.0000
     1.0000   1.0000   1.0000   1.0000   1.0000   1.0000   1.0000   1.0000
     1.0000   1.0000   1.0000   1.0000   1.0000   1.0000   1.0000   1.0000
     1.0000   1.0000   1.0000   1.0000   1.0000   1.0000   1.0000   1.0000
     1.0000   1.0000   1.0000   1.0000   1.0000   1.0000   1.0000   1.0000
     1.0000   1.0000   1.0000   1.0000   1.0000   1.0000   1.0000   1.0000
     1.0000   1.0000   1.0000   1.0000   1.0000   1.0000   1.0000   1.0000
     1.0000   1.0000   1.0000   1.0000   1.0000   1.0000   1.0000   1.0000
     0.0000   0.0000   0.0000   0.0000   0.0000   0.0000   0.0000   0.0000
     0.0000   0.0000

          k = 0.0000 0.2311 0.6778 ( 35293 PWs)   bands (ev):

   -84.7571 -84.7023 -84.5431 -84.2975 -50.8434 -50.8407 -50.8022 -50.7556
   -50.6747 -50.6511 -50.6114 -50.5138 -50.4903 -50.3493 -50.2827 -50.1218
   -44.0792 -16.2922 -16.2309 -16.0827 -16.0621 -15.8666 -15.7789 -15.6374
   -13.9107 -13.7121 -13.6138 -13.4791 -13.4562 -13.4181 -13.3672 -13.2863
   -13.2107 -13.1193 -13.0719 -12.9833  -3.8629  -3.4317  -3.3649  -3.0702
    -2.0675  -1.8422  -1.6142  -1.4944  -1.3271  -1.1607  -1.0873  -0.9591
    -0.8601  -0.8426  -0.7719  -0.5492   0.0698   0.2712   0.3909   0.5042
     0.6405   0.7123   0.7681   0.8595   0.9809   1.0578   1.1644   1.2478
     1.3714   1.4210   1.5225   1.7001   1.8627   1.9050   1.9901   2.0704
     2.1534   2.2757   2.3248   2.3564   2.5574   2.7012   2.7492   2.8503
     2.9106   2.9790   3.0781   3.1573   3.2562   3.4123   3.5255   3.6166
     3.7168   3.7951   3.8967   4.0228   4.0876   4.1715   4.2782   4.3113
     4.4427   4.5279   4.6718   4.7302   4.8661   5.1091   5.2878   5.5874
    10.9538  12.1646  12.3316  12.7681  12.9496  13.2849  13.4709  13.6280
    13.7778  13.9455

     occupation numbers 
     1.0000   1.0000   1.0000   1.0000   1.0000   1.0000   1.0000   1.0000
     1.0000   1.0000   1.0000   1.0000   1.0000   1.0000   1.0000   1.0000
     1.0000   1.0000   1.0000   1.0000   1.0000   1.0000   1.0000   1.0000
     1.0000   1.0000   1.0000   1.0000   1.0000   1.0000   1.0000   1.0000
     1.0000   1.0000   1.0000   1.0000   1.0000   1.0000   1.0000   1.0000
     1.0000   1.0000   1.0000   1.0000   1.0000   1.0000   1.0000   1.0000
     1.0000   1.0000   1.0000   1.0000   1.0000   1.0000   1.0000   1.0000
     1.0000   1.0000   1.0000   1.0000   1.0000   1.0000   1.0000   1.0000
     1.0000   1.0000   1.0000   1.0000   1.0000   1.0000   1.0000   1.0000
     1.0000   1.0000   1.0000   1.0000   1.0000   1.0000   1.0000   1.0000
     1.0000   1.0000   1.0000   1.0000   1.0000   1.0000   1.0000   1.0000
     1.0000   1.0000   1.0000   1.0000   1.0000   1.0000   1.0000   1.0000
     1.0000   1.0000   1.0000   1.0000   1.0000   1.0000   1.0000   1.0000
     0.0000   0.0000   0.0000   0.0000   0.0000   0.0000   0.0000   0.0000
     0.0000   0.0000

          k = 0.0000 0.2311 0.9038 ( 35298 PWs)   bands (ev):

   -84.7571 -84.7023 -84.5431 -84.2975 -50.8434 -50.8407 -50.8022 -50.7556
   -50.6747 -50.6511 -50.6114 -50.5138 -50.4903 -50.3493 -50.2827 -50.1218
   -44.0792 -16.3089 -16.2161 -16.0819 -16.0460 -15.8417 -15.7616 -15.6453
   -13.9195 -13.7351 -13.6119 -13.4801 -13.4502 -13.4345 -13.3779 -13.3085
   -13.2257 -13.1276 -13.0730 -12.9772  -3.7758  -3.3826  -3.3580  -3.1212
    -2.0783  -1.8053  -1.5544  -1.4863  -1.3312  -1.1977  -1.0855  -0.9730
    -0.8307  -0.7920  -0.7211  -0.5880   0.0574   0.3051   0.3966   0.5163
     0.6919   0.7397   0.7860   0.9043   1.0173   1.1312   1.1477   1.2856
     1.3651   1.4111   1.4781   1.6940   1.7583   1.8224   1.9280   2.0045
     2.1574   2.1641   2.2471   2.3658   2.5537   2.6956   2.7465   2.7898
     2.8495   2.9484   3.0139   3.1084   3.2874   3.4625   3.5638   3.6497
     3.7310   3.7923   3.9146   4.0187   4.1059   4.1778   4.2621   4.3450
     4.4466   4.5220   4.6522   4.7586   4.8732   5.0979   5.2956   5.5729
    11.5091  12.1820  12.3235  12.5666  12.9885  13.3642  13.4885  13.5515
    13.7326  13.8346

     occupation numbers 
     1.0000   1.0000   1.0000   1.0000   1.0000   1.0000   1.0000   1.0000
     1.0000   1.0000   1.0000   1.0000   1.0000   1.0000   1.0000   1.0000
     1.0000   1.0000   1.0000   1.0000   1.0000   1.0000   1.0000   1.0000
     1.0000   1.0000   1.0000   1.0000   1.0000   1.0000   1.0000   1.0000
     1.0000   1.0000   1.0000   1.0000   1.0000   1.0000   1.0000   1.0000
     1.0000   1.0000   1.0000   1.0000   1.0000   1.0000   1.0000   1.0000
     1.0000   1.0000   1.0000   1.0000   1.0000   1.0000   1.0000   1.0000
     1.0000   1.0000   1.0000   1.0000   1.0000   1.0000   1.0000   1.0000
     1.0000   1.0000   1.0000   1.0000   1.0000   1.0000   1.0000   1.0000
     1.0000   1.0000   1.0000   1.0000   1.0000   1.0000   1.0000   1.0000
     1.0000   1.0000   1.0000   1.0000   1.0000   1.0000   1.0000   1.0000
     1.0000   1.0000   1.0000   1.0000   1.0000   1.0000   1.0000   1.0000
     1.0000   1.0000   1.0000   1.0000   1.0000   1.0000   1.0000   1.0000
     0.0000   0.0000   0.0000   0.0000   0.0000   0.0000   0.0000   0.0000
     0.0000   0.0000

          k = 0.0000 0.4622 0.0000 ( 35247 PWs)   bands (ev):

   -84.7571 -84.7023 -84.5430 -84.2975 -50.8434 -50.8407 -50.8022 -50.7556
   -50.6747 -50.6511 -50.6114 -50.5138 -50.4903 -50.3493 -50.2827 -50.1218
   -44.0792 -16.3610 -16.1589 -16.0933 -16.0759 -15.8935 -15.8219 -15.6898
   -13.8915 -13.6700 -13.6056 -13.5116 -13.4428 -13.3498 -13.2896 -13.2579
   -13.1764 -13.1287 -13.0383 -12.9986  -4.0001  -3.4939  -3.4162  -3.0902
    -2.0041  -1.8089  -1.7306  -1.5661  -1.3239  -1.2175  -1.0486  -0.9547
    -0.8840  -0.7857  -0.7361  -0.5847  -0.0116   0.1475   0.2820   0.4358
     0.4888   0.6335   0.7306   0.7983   0.9427   1.0699   1.2060   1.2924
     1.4200   1.5140   1.5672   1.7837   1.8711   1.9379   2.0282   2.0872
     2.1565   2.2903   2.3955   2.4902   2.5701   2.6993   2.7282   2.9463
     3.0056   3.0718   3.1489   3.2527   3.2899   3.4305   3.4743   3.5662
     3.7440   3.8086   3.8738   3.9907   4.0484   4.1591   4.2522   4.2787
     4.3998   4.4754   4.6269   4.7236   4.9875   5.2269   5.4644   5.6635
    10.3229  11.9389  12.1928  12.3551  12.8090  13.3282  13.6660  13.7868
    13.8810  14.1755

     occupation numbers 
     1.0000   1.0000   1.0000   1.0000   1.0000   1.0000   1.0000   1.0000
     1.0000   1.0000   1.0000   1.0000   1.0000   1.0000   1.0000   1.0000
     1.0000   1.0000   1.0000   1.0000   1.0000   1.0000   1.0000   1.0000
     1.0000   1.0000   1.0000   1.0000   1.0000   1.0000   1.0000   1.0000
     1.0000   1.0000   1.0000   1.0000   1.0000   1.0000   1.0000   1.0000
[...]
     atom    8 type  4   force =    -0.04481684    0.02466494    0.00816999
     atom    9 type  4   force =     0.07387138   -0.00560861   -0.00205204
     atom   10 type  3   force =     0.00413539    0.00376207    0.00637588
     atom   11 type  3   force =     0.00460149   -0.00398975   -0.00189252
     atom   12 type  3   force =    -0.00719025   -0.00125664   -0.00720390
     atom   13 type  3   force =    -0.00001237    0.00430964   -0.00517685
     atom   14 type  3   force =    -0.08317893    0.00577722    0.01200055
     atom   15 type  3   force =     0.06515860   -0.02917067   -0.00556619
     atom   16 type  3   force =     0.08772899   -0.00385225   -0.01362883
     atom   17 type  3   force =    -0.06955117    0.02545386    0.00084671
     atom   18 type  3   force =     0.00889261    0.01199936    0.00323482
     atom   19 type  3   force =    -0.00766296   -0.00656236   -0.00673248
     atom   20 type  3   force =     0.00435352   -0.00407687    0.00093178
     atom   21 type  3   force =    -0.00070382    0.00013241   -0.00452668
     atom   22 type  3   force =    -0.00526403   -0.00929276    0.00164273
     atom   23 type  3   force =     0.00904902    0.00372543    0.00537473
     atom   24 type  3   force =    -0.00602259    0.01055338   -0.00313364
     atom   25 type  3   force =    -0.00291301    0.00290506   -0.00111412
     The non-local contrib.  to forces
     atom    1 type  2   force =    -0.08166113    0.00197210   -0.03723870
     atom    2 type  1   force =     0.06830230   -0.13330470   -0.06919621
     atom    3 type  1   force =    -0.00124025   -0.09581713    0.15490010
     atom    4 type  1   force =    -0.06301742    0.11186866    0.18929241
     atom    5 type  1   force =     0.01141744    0.09605536   -0.06355540
     atom    6 type  4   force =     0.01375630    0.03193654    0.01438442
     atom    7 type  4   force =    -0.09963274    0.02781540   -0.04284465
     atom    8 type  4   force =    -0.04610926   -0.00967582   -0.01464134
     atom    9 type  4   force =     0.08909663   -0.01992337    0.03766000
     atom   10 type  3   force =    -0.31954334   -0.10105448   -1.20006887
     atom   11 type  3   force =    -0.05929065    0.18032390   -1.40919212
     atom   12 type  3   force =     0.44700866    0.08482708    1.21184030
     atom   13 type  3   force =    -0.01483344   -0.21602727    1.40076163
     atom   14 type  3   force =     1.31980728   -0.17210720   -0.57438083
     atom   15 type  3   force =    -1.18884264    0.72142173   -0.10042101
     atom   16 type  3   force =    -1.37486651    0.12731489    0.59478730
     atom   17 type  3   force =     1.16020454   -0.74021755    0.23537442
     atom   18 type  3   force =    -0.37560513   -1.37412712    0.63751253
     atom   19 type  3   force =     0.50093673    0.80081278    0.96798000
     atom   20 type  3   force =    -0.05669335   -1.44850804   -0.98830189
     atom   21 type  3   force =    -0.09118892    1.05385433   -0.64282481
     atom   22 type  3   force =     0.31635342    1.28779018   -0.68898146
     atom   23 type  3   force =    -0.54713312   -0.73861107   -1.01198521
     atom   24 type  3   force =     0.08706540    1.46619372    1.04092710
     atom   25 type  3   force =     0.26561122   -1.02330043    0.66074885
     The ionic contribution  to forces
     atom    1 type  2   force =    -2.16165398    3.81833670    2.24706058
     atom    2 type  1   force =    13.33975965   -0.23144269   -1.57409895
     atom    3 type  1   force =     4.03747259   -6.52733423   -3.76716082
     atom    4 type  1   force =    -9.98976622   -4.02395186    3.92661617
     atom    5 type  1   force =    -7.77665018    7.77596635    1.49188710
     atom    6 type  4   force =     0.34140062    1.16688391   -0.92989650
     atom    7 type  4   force =     3.08344244   -0.01946153    1.11699291
     atom    8 type  4   force =     0.94801501   -2.36493563    0.98946420
     atom    9 type  4   force =    -3.29038820    0.70885481   -1.32683888
     atom   10 type  3   force =    -0.47445244    1.58106567   -1.72021433
     atom   11 type  3   force =     8.18055354   -2.40773466    1.79980422
     atom   12 type  3   force =     1.61695563   -6.80451748   -1.18060821
     atom   13 type  3   force =    -8.39465764    3.73362102   -1.91292339
     atom   14 type  3   force =     1.19099350    0.65764844    7.42924441
     atom   15 type  3   force =    -0.40310494   -4.35140564    2.67894715
     atom   16 type  3   force =    -0.34090519   -0.68993370   -7.81848135
     atom   17 type  3   force =     0.13310099    7.07615580   -3.96268348
     atom   18 type  3   force =    -1.03028351    8.25756094    4.38819509
     atom   19 type  3   force =     4.88626282   -0.92815587   -4.25615899
     atom   20 type  3   force =     2.96045827    1.99582775    8.76090547
     atom   21 type  3   force =    -9.59520008   -0.99816014    0.13442032
     atom   22 type  3   force =     2.38898399   -6.07662630   -1.70223991
     atom   23 type  3   force =    -3.68286928    1.32810433    4.78699256
     atom   24 type  3   force =    -3.70314001   -4.20537514   -8.79430295
     atom   25 type  3   force =     7.73567262    1.52900912   -0.80492242
     The local contribution  to forces
     atom    1 type  2   force =     2.23820744   -3.82234032   -2.20031645
     atom    2 type  1   force =   -13.40727089    0.36057950    1.63144955
     atom    3 type  1   force =    -4.02759473    6.61692758    3.61394795
     atom    4 type  1   force =    10.05048615    3.91373298   -4.09846676
     atom    5 type  1   force =     7.75867690   -7.87551787   -1.42943338
     atom    6 type  4   force =    -0.30429982   -1.22225828    0.91158642
     atom    7 type  4   force =    -3.06722373   -0.00036265   -1.07293072
     atom    8 type  4   force =    -0.94969213    2.39966811   -0.96719614
     atom    9 type  4   force =     3.28283205   -0.69588660    1.28867094
     atom   10 type  3   force =     0.79599590   -1.47706751    2.91646854
     atom   11 type  3   force =    -8.11785949    2.22513247   -0.40467546
     atom   12 type  3   force =    -2.06774303    6.71905969   -0.02804505
     atom   13 type  3   force =     8.41010702   -3.51542182    0.51900259
     atom   14 type  3   force =    -2.58404581   -0.48124279   -6.84820779
     atom   15 type  3   force =     1.64812964    3.60701783   -2.58554962
     atom   16 type  3   force =     1.79313098    0.55985216    7.21562705
     atom   17 type  3   force =    -1.35404403   -6.31708620    3.73070077
     atom   18 type  3   force =     1.41212419   -6.88378809   -5.01719032
     atom   19 type  3   force =    -5.39064133    0.12732169    3.29012219
     atom   20 type  3   force =    -2.90007581   -0.56400223   -7.78079406
     atom   21 type  3   force =     9.68509785   -0.04650683    0.49809218
     atom   22 type  3   force =    -2.70848727    4.79112438    2.38716622
     atom   23 type  3   force =     4.23446587   -0.59173132   -3.77867284
     atom   24 type  3   force =     3.61104284    2.76246724    7.75990645
     atom   25 type  3   force =    -8.00197754   -0.51155820    0.14901132
     The core correction contribution to forces
     atom    1 type  2   force =     0.00000000    0.00000000    0.00000000
     atom    2 type  1   force =    -0.00228914    0.00204519    0.00154825
     atom    3 type  1   force =     0.00008187    0.00125263   -0.00092377
     atom    4 type  1   force =     0.00259223   -0.00083203   -0.00223246
     atom    5 type  1   force =    -0.00094025    0.00075686   -0.00096135
     atom    6 type  4   force =    -0.00113875   -0.00062204   -0.00021979
     atom    7 type  4   force =     0.00830000   -0.00235854    0.00225961
     atom    8 type  4   force =     0.00296394   -0.00039309    0.00054351
     atom    9 type  4   force =    -0.00766848    0.00134713   -0.00154412
     atom   10 type  3   force =     0.00213332    0.00081933    0.01019080
     atom   11 type  3   force =     0.00120398   -0.00171232    0.01216835
     atom   12 type  3   force =    -0.00341888   -0.00062949   -0.01039451
     atom   13 type  3   force =    -0.00062989    0.00213864   -0.01201586
     atom   14 type  3   force =    -0.00992991    0.00147917    0.00534461
     atom   15 type  3   force =     0.00896939   -0.00620524    0.00145874
     atom   16 type  3   force =     0.01037724   -0.00108592   -0.00555889
     atom   17 type  3   force =    -0.00881639    0.00660302   -0.00254579
     atom   18 type  3   force =     0.00265526    0.01235373   -0.00528264
     atom   19 type  3   force =    -0.00421716   -0.00654193   -0.00867399
     atom   20 type  3   force =     0.00065979    0.01260401    0.00912358
     atom   21 type  3   force =     0.00058737   -0.00906057    0.00578364
     atom   22 type  3   force =    -0.00212306   -0.01157953    0.00570142
     atom   23 type  3   force =     0.00458481    0.00597029    0.00903849
     atom   24 type  3   force =    -0.00099512   -0.01273145   -0.00966665
     atom   25 type  3   force =    -0.00221479    0.00875525   -0.00594980
     The Hubbard contrib.    to forces
     atom    1 type  2   force =     0.00000000    0.00000000    0.00000000
     atom    2 type  1   force =     0.00000000    0.00000000    0.00000000
     atom    3 type  1   force =     0.00000000    0.00000000    0.00000000
     atom    4 type  1   force =     0.00000000    0.00000000    0.00000000
     atom    5 type  1   force =     0.00000000    0.00000000    0.00000000
     atom    6 type  4   force =     0.00000000    0.00000000    0.00000000
     atom    7 type  4   force =     0.00000000    0.00000000    0.00000000
     atom    8 type  4   force =     0.00000000    0.00000000    0.00000000
     atom    9 type  4   force =     0.00000000    0.00000000    0.00000000
     atom   10 type  3   force =     0.00000000    0.00000000    0.00000000
     atom   11 type  3   force =     0.00000000    0.00000000    0.00000000
     atom   12 type  3   force =     0.00000000    0.00000000    0.00000000
     atom   13 type  3   force =     0.00000000    0.00000000    0.00000000
     atom   14 type  3   force =     0.00000000    0.00000000    0.00000000
     atom   15 type  3   force =     0.00000000    0.00000000    0.00000000
     atom   16 type  3   force =     0.00000000    0.00000000    0.00000000
     atom   17 type  3   force =     0.00000000    0.00000000    0.00000000
     atom   18 type  3   force =     0.00000000    0.00000000    0.00000000
     atom   19 type  3   force =     0.00000000    0.00000000    0.00000000
     atom   20 type  3   force =     0.00000000    0.00000000    0.00000000
     atom   21 type  3   force =     0.00000000    0.00000000    0.00000000
     atom   22 type  3   force =     0.00000000    0.00000000    0.00000000
     atom   23 type  3   force =     0.00000000    0.00000000    0.00000000
     atom   24 type  3   force =     0.00000000    0.00000000    0.00000000
     atom   25 type  3   force =     0.00000000    0.00000000    0.00000000
     The SCF correction term to forces
     atom    1 type  2   force =     0.00000573   -0.00000090   -0.00000082
     atom    2 type  1   force =    -0.00000815   -0.00000045   -0.00000090
     atom    3 type  1   force =    -0.00000175    0.00000028   -0.00000001
     atom    4 type  1   force =     0.00000184    0.00000102    0.00000049
     atom    5 type  1   force =     0.00000763    0.00000091    0.00000170
     atom    6 type  4   force =     0.00000208   -0.00000075    0.00000032
     atom    7 type  4   force =    -0.00000531    0.00000035   -0.00000049
     atom    8 type  4   force =     0.00000472    0.00000134   -0.00000027
     atom    9 type  4   force =    -0.00000150   -0.00000062   -0.00000000
     atom   10 type  3   force =     0.00000106   -0.00000097   -0.00000028
     atom   11 type  3   force =    -0.00000677    0.00000083    0.00000247
     atom   12 type  3   force =     0.00000647    0.00000352    0.00000356
     atom   13 type  3   force =     0.00000069   -0.00000095   -0.00000185
     atom   14 type  3   force =    -0.00000488   -0.00000041    0.00000013
     atom   15 type  3   force =     0.00000626    0.00000061   -0.00000148
     atom   16 type  3   force =    -0.00000842    0.00000029   -0.00000296
     atom   17 type  3   force =     0.00000284   -0.00000125    0.00000077
     atom   18 type  3   force =     0.00000090   -0.00000013    0.00000013
     atom   19 type  3   force =    -0.00000491    0.00000094   -0.00000172
     atom   20 type  3   force =     0.00000372    0.00000160   -0.00000135
     atom   21 type  3   force =    -0.00000092    0.00000559    0.00000198
     atom   22 type  3   force =     0.00000800   -0.00000152   -0.00000357
     atom   23 type  3   force =    -0.00000015   -0.00000683    0.00000171
     atom   24 type  3   force =     0.00000342   -0.00000102    0.00000240
     atom   25 type  3   force =    -0.00000541   -0.00000072   -0.00000210

     Total force =     0.210453     Total SCF correction =     0.000028


     Computing stress (Cartesian axis) and pressure


     negative rho (up, down):  0.000E+00 8.837E-04
          total   stress  (Ry/bohr**3)                   (kbar)     P=       79.20
   0.00074309  -0.00003826   0.00000648          109.31       -5.63        0.95
  -0.00003826   0.00041594  -0.00012482           -5.63       61.19      -18.36
   0.00000648  -0.00012482   0.00045611            0.95      -18.36       67.10

     kinetic stress (kbar)  27632.21     66.96    -41.84
                               66.96  27702.88     -7.29
                              -41.84     -7.29  27678.85

     local   stress (kbar)  -8730.54   3812.39  -7464.39
                             3812.39 -13780.32    629.57
                            -7464.39    629.57  -5413.91

     nonloc. stress (kbar)  -7087.04      5.19      4.13
                                5.19  -7049.08     -6.99
                                4.13     -6.99  -7072.30

     hartree stress (kbar)  14935.53  -1419.19   3145.41
                            -1419.19  17899.78   -192.48
                             3145.41   -192.48  14063.78

     exc-cor stress (kbar)  -2913.33     -3.50      3.20
                               -3.50  -2918.87     -1.02
                                3.20     -1.02  -2917.75

     corecor stress (kbar)  -3224.83      0.49     -0.98
                                0.49  -3224.18      0.73
                               -0.98      0.73  -3224.62

     ewald   stress (kbar) -20502.70  -2467.97   4355.44
                            -2467.97 -18569.04   -440.90
                             4355.44   -440.90 -23046.95

     hubbard stress (kbar)      0.00      0.00      0.00
                                0.00      0.00      0.00
                                0.00      0.00      0.00

     DFT-D   stress (kbar)      0.00      0.00      0.00
                                0.00      0.00      0.00
                                0.00      0.00      0.00

     XDM     stress (kbar)      0.00      0.00      0.00
                                0.00      0.00      0.00
                                0.00      0.00      0.00

     dft-nl  stress (kbar)      0.00      0.00      0.00
                                0.00      0.00      0.00
                                0.00      0.00      0.00

     TS-vdW  stress (kbar)      0.00      0.00      0.00
                                0.00      0.00      0.00
                                0.00      0.00      0.00



     init_run     :   1825.46s CPU   2466.18s WALL (       1 calls)
     electrons    : 161487.03s CPU 196956.25s WALL (       1 calls)
     forces       :    268.77s CPU    342.90s WALL (       1 calls)
     stress       :   1360.63s CPU   1737.60s WALL (       1 calls)

     Called by init_run:
     wfcinit      :   1809.11s CPU   2431.31s WALL (       1 calls)
     wfcinit:atom :      2.40s CPU      3.33s WALL (     316 calls)
     wfcinit:wfcr :   1796.37s CPU   2413.69s WALL (     316 calls)
     potinit      :      6.28s CPU     12.84s WALL (       1 calls)
     hinit0       :      6.23s CPU     13.08s WALL (       1 calls)

     Called by electrons:
     c_bands      : 134304.59s CPU 164095.64s WALL (      34 calls)
     sum_band     :  26872.58s CPU  32466.69s WALL (      34 calls)
     v_of_rho     :     82.91s CPU    100.96s WALL (      35 calls)
     v_h          :      5.35s CPU      6.79s WALL (      35 calls)
     v_xc         :     81.74s CPU     99.59s WALL (      37 calls)
     newd         :    124.16s CPU    173.21s WALL (      35 calls)
     PAW_pot      :     34.96s CPU     43.90s WALL (      35 calls)
     mix_rho      :     52.67s CPU     63.48s WALL (      34 calls)

     Called by c_bands:
     init_us_2    :    268.29s CPU    348.24s WALL (   22436 calls)
     cegterg      : 132925.44s CPU 162369.22s WALL (   10744 calls)

     Called by sum_band:
     sum_band:wei :      0.60s CPU      0.80s WALL (      34 calls)
     sum_band:loo :  26558.30s CPU  32055.70s WALL (      34 calls)
     sum_band:buf :     79.65s CPU     99.51s WALL (   10744 calls)
     sum_band:ini :    110.29s CPU    138.45s WALL (   10744 calls)
     sum_band:cal :   2100.45s CPU   2517.23s WALL (   10744 calls)
     sum_band:bec :     10.68s CPU     11.57s WALL (   10744 calls)
     addusdens    :    253.29s CPU    344.65s WALL (      34 calls)
     addusd:skk   :      1.69s CPU      2.14s WALL (     102 calls)
     addusd:dgemm :     76.39s CPU    123.50s WALL (     204 calls)
     addusd:qvan2 :    171.61s CPU    212.46s WALL (     204 calls)

     Called by *egterg:
     cdiaghg      :   3528.70s CPU   4380.15s WALL (   39244 calls)
     cegterg:over :   5893.50s CPU   7096.40s WALL (   28500 calls)
     cegterg:upda :   1121.49s CPU   1408.87s WALL (   28500 calls)
     cegterg:last :   2317.25s CPU   2912.65s WALL (   17440 calls)
     h_psi        : 113843.00s CPU 139318.15s WALL (   39560 calls)
     s_psi        :   2591.22s CPU   3228.85s WALL (   39560 calls)
     g_psi        :     19.16s CPU     23.59s WALL (   28500 calls)

     Called by h_psi:
     h_psi:calbec :   5383.33s CPU   6513.69s WALL (   39560 calls)
     vloc_psi     : 105576.33s CPU 129139.98s WALL (   39560 calls)
     add_vuspsi   :   2770.81s CPU   3528.21s WALL (   39560 calls)

     General routines
     calbec       :   7824.59s CPU   9465.94s WALL (   51884 calls)
     fft          :    143.73s CPU    166.78s WALL (     913 calls)
     ffts         :     11.39s CPU     13.61s WALL (     138 calls)
     fftw         : 129413.26s CPU 157983.03s WALL ( 6604098 calls)
     interpolate  :     12.71s CPU     15.11s WALL (      70 calls)

     Parallel routines
     fft_scatt_xy :    578.32s CPU    591.52s WALL ( 6605149 calls)
     fft_scatt_yz : 125888.85s CPU 154374.33s WALL ( 6605149 calls)

     PAW routines
     PAW_pot      :     34.96s CPU     43.90s WALL (      35 calls)

     PWSCF        :   1d21h49m CPU   2d 7h58m WALL


   This run was terminated on:   4:40:47  15Jan2023            

=------------------------------------------------------------------------------=
   JOB DONE.
=------------------------------------------------------------------------------=
Note: The following floating-point exceptions are signalling: IEEE_UNDERFLOW_FLAG IEEE_DENORMAL
Note: The following floating-point exceptions are signalling: IEEE_DENORMAL
Note: The following floating-point exceptions are signalling: IEEE_DENORMAL
Note: The following floating-point exceptions are signalling: IEEE_DENORMAL
Note: The following floating-point exceptions are signalling: IEEE_DENORMAL
Note: The following floating-point exceptions are signalling: IEEE_DENORMAL
Note: The following floating-point exceptions are signalling: IEEE_DENORMAL
Note: The following floating-point exceptions are signalling: IEEE_DENORMAL
Note: The following floating-point exceptions are signalling: IEEE_DENORMAL
