
     Program PWSCF v.6.7MaX starts on 12Jan2023 at 20:42:13 

     This program is part of the open-source Quantum ESPRESSO suite
     for quantum simulation of materials; please cite
         "P. Giannozzi et al., J. Phys.:Condens. Matter 21 395502 (2009);
         "P. Giannozzi et al., J. Phys.:Condens. Matter 29 465901 (2017);
          URL http://www.quantum-espresso.org", 
     in publications or presentations arising from this work. More details at
     http://www.quantum-espresso.org/quote

     Parallel version (MPI), running on    12 processors

     MPI processes distributed on     1 nodes
     R & G space division:  proc/nbgrp/npool/nimage =      12
     Reading input from scale_1da-04.in

     Current dimensions of program PWSCF are:
     Max number of different atomic species (ntypx) = 10
     Max number of k-points (npk) =  40000
     Max angular momentum in pseudopotentials (lmaxx) =  3
     Message from routine read_pp_mesh:
     mesh size missing, using the one in header
     file Fe.pbe-spn-kjpaw_psl.0.2.1.UPF: wavefunction(s)  3D renormalized
     file O.pbe-n-kjpaw_psl.0.1.UPF: wavefunction(s)  2P renormalized

     Subspace diagonalization in iterative solution of the eigenvalue problem:
     a serial algorithm will be used


     Parallelization info
     --------------------
     sticks:   dense  smooth     PW     G-vecs:    dense   smooth      PW
     Min        1710     633    171               111503    25143    3530
     Max        1711     634    173               111505    25145    3531
     Sum       20531    7599   2057              1338043   301725   42371



     bravais-lattice index     =            0
     lattice parameter (alat)  =      20.3206  a.u.
     unit-cell volume          =    2232.3697 (a.u.)^3
     number of atoms/cell      =           25
     number of atomic types    =            4
     number of electrons       =       189.00
     number of Kohn-Sham states=          114
     kinetic-energy cutoff     =     100.0000  Ry
     charge density cutoff     =    1080.0000  Ry
     scf convergence threshold =      2.0E-10
     mixing beta               =       0.4000
     number of iterations used =            8  plain     mixing
     Exchange-correlation= PBE
                           (   1   4   3   4   0   0   0)

     celldm(1)=  20.320559  celldm(2)=   0.000000  celldm(3)=   0.000000
     celldm(4)=   0.000000  celldm(5)=   0.000000  celldm(6)=   0.000000

     crystal axes: (cart. coord. in units of alat)
               a(1) = (   1.000000   0.000000   0.000000 )  
               a(2) = (   0.000000   0.578313   0.000000 )  
               a(3) = (   0.000000   0.000000   0.460041 )  

     reciprocal axes: (cart. coord. in units 2 pi/alat)
               b(1) = (  1.000000  0.000000  0.000000 )  
               b(2) = (  0.000000  1.729168  0.000000 )  
               b(3) = (  0.000000  0.000000  2.173720 )  


     PseudoPot. # 1 for Fe read from file:
     /opt/QEpot/SSSP_precision_pseudos/Fe.pbe-spn-kjpaw_psl.0.2.1.UPF
     MD5 check sum: e86618425769142926afa95317d90200
     Pseudo is Projector augmented-wave + core cor, Zval = 16.0
     Generated using "atomic" code by A. Dal Corso  v.5.0.99 svn rev. 10869
     Shape of augmentation charge: PSQ
     Using radial grid of 1191 points,  6 beta functions with: 
                l(1) =   0
                l(2) =   0
                l(3) =   1
                l(4) =   1
                l(5) =   2
                l(6) =   2
     Q(r) pseudized with 0 coefficients 


     PseudoPot. # 2 for Na read from file:
     /opt/QEpot/SSSP_precision_pseudos/Na_ONCV_PBE-1.0.oncvpsp.upf
     MD5 check sum: 24a298df0a6742ae313db96548fdb2a4
     Pseudo is Norm-conserving, Zval =  9.0
     Generated using ONCVPSP code by D. R. Hamann
     Using radial grid of 1992 points,  4 beta functions with: 
                l(1) =   0
                l(2) =   0
                l(3) =   1
                l(4) =   1

     PseudoPot. # 3 for O  read from file:
     /opt/QEpot/SSSP_precision_pseudos/O.pbe-n-kjpaw_psl.0.1.UPF
     MD5 check sum: 0234752ac141de4415c5fc33072bef88
     Pseudo is Projector augmented-wave + core cor, Zval =  6.0
     Generated using "atomic" code by A. Dal Corso  v.5.0.99 svn rev. 10869
     Shape of augmentation charge: BESSEL
     Using radial grid of 1095 points,  4 beta functions with: 
                l(1) =   0
                l(2) =   0
                l(3) =   1
                l(4) =   1
     Q(r) pseudized with 0 coefficients 


     PseudoPot. # 4 for P  read from file:
     /opt/QEpot/SSSP_precision_pseudos/P.pbe-n-rrkjus_psl.1.0.0.UPF
     MD5 check sum: 8b930f418f0a4573dca56cd030ffe088
     Pseudo is Ultrasoft + core correction, Zval =  5.0
     Generated using "atomic" code by A. Dal Corso  v.5.1
     Using radial grid of 1147 points,  6 beta functions with: 
                l(1) =   0
                l(2) =   0
                l(3) =   1
                l(4) =   1
                l(5) =   2
                l(6) =   2
     Q(r) pseudized with 0 coefficients 


     atomic species   valence    mass     pseudopotential
        Fe            16.00    55.84500     Fe( 1.00)
        Na             9.00    22.98977     Na( 1.00)
        O              6.00    15.99940     O ( 1.00)
        P              5.00    30.97376     P ( 1.00)

     Starting magnetic structure 
     atomic species   magnetization
        Fe           0.312
        Na           0.000
        O            0.000
        P            0.000

     No symmetry found


                                    s                        frac. trans.

      isym =  1     identity                                     

 cryst.   s( 1) = (     1          0          0      )
                  (     0          1          0      )
                  (     0          0          1      )

 cart.    s( 1) = (  1.0000000  0.0000000  0.0000000 )
                  (  0.0000000  1.0000000  0.0000000 )
                  (  0.0000000  0.0000000  1.0000000 )


   Cartesian axes

     site n.     atom                  positions (alat units)
         1           Na  tau(   1) = (   0.9908320   0.5183568   0.3785437  )
         2           Fe  tau(   2) = (   0.2986640   0.4452228   0.3945393  )
         3           Fe  tau(   3) = (   0.2176140   0.1751478   0.2216987  )
         4           Fe  tau(   4) = (   0.6993130   0.1332577   0.0552141  )
         5           Fe  tau(   5) = (   0.7827270   0.3853333   0.2159616  )
         6           P   tau(   6) = (   0.0964330   0.4053395   0.1423937  )
         7           P   tau(   7) = (   0.3931680   0.1454781   0.4232946  )
         8           P   tau(   8) = (   0.9083370   0.1870940   0.3159036  )
         9           P   tau(   9) = (   0.6077760   0.4335617   0.0159749  )
        10           O   tau(  10) = (   0.1605150   0.4205138   0.2715372  )
        11           O   tau(  11) = (   0.3515630   0.1432978   0.1003294  )
        12           O   tau(  12) = (   0.8284030   0.1914424   0.1913719  )
        13           O   tau(  13) = (   0.6540840   0.4333761   0.3403377  )
        14           O   tau(  14) = (   0.4610620   0.4444756   0.0262536  )
        15           O   tau(  15) = (   0.0466520   0.1369751   0.3004996  )
        16           O   tau(  16) = (   0.5400580   0.1366680   0.4116013  )
        17           O   tau(  17) = (   0.9523340   0.4466449   0.1485729  )
        18           O   tau(  18) = (   0.1650350   0.4957882   0.0505152  )
        19           O   tau(  19) = (   0.3242430   0.0418739   0.3427838  )
        20           O   tau(  20) = (   0.8958430   0.3225175   0.3630817  )
        21           O   tau(  21) = (   0.6568690   0.3143460   0.0886761  )
        22           O   tau(  22) = (   0.8385610   0.0939365   0.4040842  )
        23           O   tau(  23) = (   0.6777090   0.5348723   0.0981709  )
        24           O   tau(  24) = (   0.1168020   0.2700663   0.0978764  )
        25           O   tau(  25) = (   0.3354730   0.2625141   0.3514385  )

   Crystallographic axes

     site n.     atom                  positions (cryst. coord.)
         1           Na  tau(   1) = (  0.9908320  0.8963260  0.8228480  )
         2           Fe  tau(   2) = (  0.2986640  0.7698650  0.8576180  )
         3           Fe  tau(   3) = (  0.2176140  0.3028600  0.4819110  )
         4           Fe  tau(   4) = (  0.6993130  0.2304250  0.1200200  )
         5           Fe  tau(   5) = (  0.7827270  0.6663060  0.4694400  )
         6           P   tau(   6) = (  0.0964330  0.7009000  0.3095240  )
         7           P   tau(   7) = (  0.3931680  0.2515560  0.9201240  )
         8           P   tau(   8) = (  0.9083370  0.3235170  0.6866860  )
         9           P   tau(   9) = (  0.6077760  0.7497010  0.0347250  )
        10           O   tau(  10) = (  0.1605150  0.7271390  0.5902460  )
        11           O   tau(  11) = (  0.3515630  0.2477860  0.2180880  )
        12           O   tau(  12) = (  0.8284030  0.3310360  0.4159890  )
        13           O   tau(  13) = (  0.6540840  0.7493800  0.7397990  )
        14           O   tau(  14) = (  0.4610620  0.7685730  0.0570680  )
        15           O   tau(  15) = (  0.0466520  0.2368530  0.6532020  )
        16           O   tau(  16) = (  0.5400580  0.2363220  0.8947060  )
        17           O   tau(  17) = (  0.9523340  0.7723240  0.3229560  )
        18           O   tau(  18) = (  0.1650350  0.8573010  0.1098060  )
        19           O   tau(  19) = (  0.3242430  0.0724070  0.7451160  )
        20           O   tau(  20) = (  0.8958430  0.5576870  0.7892380  )
        21           O   tau(  21) = (  0.6568690  0.5435570  0.1927570  )
        22           O   tau(  22) = (  0.8385610  0.1624320  0.8783660  )
        23           O   tau(  23) = (  0.6777090  0.9248840  0.2133960  )
        24           O   tau(  24) = (  0.1168020  0.4669900  0.2127560  )
        25           O   tau(  25) = (  0.3354730  0.4539310  0.7639290  )

     number of k points=   158  Marzari-Vanderbilt smearing, width (Ry)=  0.0073
                       cart. coord. in units 2pi/alat
        k(    1) = (   0.0000000   0.0000000   0.0000000), wk =   0.0031746
        k(    2) = (   0.0000000   0.0000000   0.2415245), wk =   0.0063492
        k(    3) = (   0.0000000   0.0000000   0.4830489), wk =   0.0063492
        k(    4) = (   0.0000000   0.0000000   0.7245734), wk =   0.0063492
        k(    5) = (   0.0000000   0.0000000   0.9660979), wk =   0.0063492
        k(    6) = (   0.0000000   0.2470240   0.0000000), wk =   0.0063492
        k(    7) = (   0.0000000   0.2470240   0.2415245), wk =   0.0063492
        k(    8) = (   0.0000000   0.2470240   0.4830489), wk =   0.0063492
        k(    9) = (   0.0000000   0.2470240   0.7245734), wk =   0.0063492
        k(   10) = (   0.0000000   0.2470240   0.9660979), wk =   0.0063492
        k(   11) = (   0.0000000   0.4940480   0.0000000), wk =   0.0063492
        k(   12) = (   0.0000000   0.4940480   0.2415245), wk =   0.0063492
        k(   13) = (   0.0000000   0.4940480   0.4830489), wk =   0.0063492
        k(   14) = (   0.0000000   0.4940480   0.7245734), wk =   0.0063492
        k(   15) = (   0.0000000   0.4940480   0.9660979), wk =   0.0063492
        k(   16) = (   0.0000000   0.7410720   0.0000000), wk =   0.0063492
        k(   17) = (   0.0000000   0.7410720   0.2415245), wk =   0.0063492
        k(   18) = (   0.0000000   0.7410720   0.4830489), wk =   0.0063492
        k(   19) = (   0.0000000   0.7410720   0.7245734), wk =   0.0063492
        k(   20) = (   0.0000000   0.7410720   0.9660979), wk =   0.0063492
        k(   21) = (   0.2000000   0.0000000   0.0000000), wk =   0.0063492
        k(   22) = (   0.2000000   0.0000000   0.2415245), wk =   0.0063492
        k(   23) = (   0.2000000   0.0000000   0.4830489), wk =   0.0063492
        k(   24) = (   0.2000000   0.0000000   0.7245734), wk =   0.0063492
        k(   25) = (   0.2000000   0.0000000   0.9660979), wk =   0.0063492
        k(   26) = (   0.2000000   0.2470240   0.0000000), wk =   0.0063492
        k(   27) = (   0.2000000   0.2470240   0.2415245), wk =   0.0063492
        k(   28) = (   0.2000000   0.2470240   0.4830489), wk =   0.0063492
        k(   29) = (   0.2000000   0.2470240   0.7245734), wk =   0.0063492
        k(   30) = (   0.2000000   0.2470240   0.9660979), wk =   0.0063492
        k(   31) = (   0.2000000   0.4940480   0.0000000), wk =   0.0063492
        k(   32) = (   0.2000000   0.4940480   0.2415245), wk =   0.0063492
        k(   33) = (   0.2000000   0.4940480   0.4830489), wk =   0.0063492
        k(   34) = (   0.2000000   0.4940480   0.7245734), wk =   0.0063492
        k(   35) = (   0.2000000   0.4940480   0.9660979), wk =   0.0063492
        k(   36) = (   0.2000000   0.7410720   0.0000000), wk =   0.0063492
        k(   37) = (   0.2000000   0.7410720   0.2415245), wk =   0.0063492
        k(   38) = (   0.2000000   0.7410720   0.4830489), wk =   0.0063492
        k(   39) = (   0.2000000   0.7410720   0.7245734), wk =   0.0063492
        k(   40) = (   0.2000000   0.7410720   0.9660979), wk =   0.0063492
        k(   41) = (   0.4000000   0.0000000   0.0000000), wk =   0.0063492
        k(   42) = (   0.4000000   0.0000000   0.2415245), wk =   0.0063492
        k(   43) = (   0.4000000   0.0000000   0.4830489), wk =   0.0063492
        k(   44) = (   0.4000000   0.0000000   0.7245734), wk =   0.0063492
        k(   45) = (   0.4000000   0.0000000   0.9660979), wk =   0.0063492
        k(   46) = (   0.4000000   0.2470240   0.0000000), wk =   0.0063492
        k(   47) = (   0.4000000   0.2470240   0.2415245), wk =   0.0063492
        k(   48) = (   0.4000000   0.2470240   0.4830489), wk =   0.0063492
        k(   49) = (   0.4000000   0.2470240   0.7245734), wk =   0.0063492
        k(   50) = (   0.4000000   0.2470240   0.9660979), wk =   0.0063492
        k(   51) = (   0.4000000   0.4940480   0.0000000), wk =   0.0063492
        k(   52) = (   0.4000000   0.4940480   0.2415245), wk =   0.0063492
        k(   53) = (   0.4000000   0.4940480   0.4830489), wk =   0.0063492
        k(   54) = (   0.4000000   0.4940480   0.7245734), wk =   0.0063492
        k(   55) = (   0.4000000   0.4940480   0.9660979), wk =   0.0063492
        k(   56) = (   0.4000000   0.7410720   0.0000000), wk =   0.0063492
        k(   57) = (   0.4000000   0.7410720   0.2415245), wk =   0.0063492
        k(   58) = (   0.4000000   0.7410720   0.4830489), wk =   0.0063492
        k(   59) = (   0.4000000   0.7410720   0.7245734), wk =   0.0063492
        k(   60) = (   0.4000000   0.7410720   0.9660979), wk =   0.0063492
        k(   61) = (   0.0000000  -0.2470240   0.2415245), wk =   0.0063492
        k(   62) = (   0.0000000  -0.2470240   0.4830489), wk =   0.0063492
        k(   63) = (   0.0000000  -0.2470240   0.7245734), wk =   0.0063492
        k(   64) = (   0.0000000  -0.2470240   0.9660979), wk =   0.0063492
        k(   65) = (   0.0000000  -0.4940480   0.2415245), wk =   0.0063492
        k(   66) = (   0.0000000  -0.4940480   0.4830489), wk =   0.0063492
        k(   67) = (   0.0000000  -0.4940480   0.7245734), wk =   0.0063492
        k(   68) = (   0.0000000  -0.4940480   0.9660979), wk =   0.0063492
        k(   69) = (   0.0000000  -0.7410720   0.2415245), wk =   0.0063492
        k(   70) = (   0.0000000  -0.7410720   0.4830489), wk =   0.0063492
        k(   71) = (   0.0000000  -0.7410720   0.7245734), wk =   0.0063492
        k(   72) = (   0.0000000  -0.7410720   0.9660979), wk =   0.0063492
        k(   73) = (  -0.2000000   0.0000000   0.2415245), wk =   0.0063492
        k(   74) = (  -0.2000000   0.0000000   0.4830489), wk =   0.0063492
        k(   75) = (  -0.2000000   0.0000000   0.7245734), wk =   0.0063492
        k(   76) = (  -0.2000000   0.0000000   0.9660979), wk =   0.0063492
        k(   77) = (  -0.2000000   0.2470240   0.0000000), wk =   0.0063492
        k(   78) = (  -0.2000000  -0.2470240   0.2415245), wk =   0.0063492
        k(   79) = (  -0.2000000   0.2470240  -0.2415245), wk =   0.0063492
        k(   80) = (   0.2000000  -0.2470240  -0.2415245), wk =   0.0063492
        k(   81) = (  -0.2000000  -0.2470240   0.4830489), wk =   0.0063492
        k(   82) = (  -0.2000000   0.2470240  -0.4830489), wk =   0.0063492
        k(   83) = (   0.2000000  -0.2470240  -0.4830489), wk =   0.0063492
        k(   84) = (  -0.2000000  -0.2470240   0.7245734), wk =   0.0063492
        k(   85) = (  -0.2000000   0.2470240  -0.7245734), wk =   0.0063492
        k(   86) = (   0.2000000  -0.2470240  -0.7245734), wk =   0.0063492
        k(   87) = (  -0.2000000  -0.2470240   0.9660979), wk =   0.0063492
        k(   88) = (  -0.2000000   0.2470240  -0.9660979), wk =   0.0063492
        k(   89) = (   0.2000000  -0.2470240  -0.9660979), wk =   0.0063492
        k(   90) = (  -0.2000000   0.4940480   0.0000000), wk =   0.0063492
        k(   91) = (  -0.2000000  -0.4940480   0.2415245), wk =   0.0063492
        k(   92) = (  -0.2000000   0.4940480  -0.2415245), wk =   0.0063492
        k(   93) = (   0.2000000  -0.4940480  -0.2415245), wk =   0.0063492
        k(   94) = (  -0.2000000  -0.4940480   0.4830489), wk =   0.0063492
        k(   95) = (  -0.2000000   0.4940480  -0.4830489), wk =   0.0063492
        k(   96) = (   0.2000000  -0.4940480  -0.4830489), wk =   0.0063492
        k(   97) = (  -0.2000000  -0.4940480   0.7245734), wk =   0.0063492
        k(   98) = (  -0.2000000   0.4940480  -0.7245734), wk =   0.0063492
        k(   99) = (   0.2000000  -0.4940480  -0.7245734), wk =   0.0063492
        k(  100) = (  -0.2000000  -0.4940480   0.9660979), wk =   0.0063492
        k(  101) = (  -0.2000000   0.4940480  -0.9660979), wk =   0.0063492
        k(  102) = (   0.2000000  -0.4940480  -0.9660979), wk =   0.0063492
        k(  103) = (  -0.2000000   0.7410720   0.0000000), wk =   0.0063492
        k(  104) = (  -0.2000000  -0.7410720   0.2415245), wk =   0.0063492
        k(  105) = (  -0.2000000   0.7410720  -0.2415245), wk =   0.0063492
        k(  106) = (   0.2000000  -0.7410720  -0.2415245), wk =   0.0063492
        k(  107) = (  -0.2000000  -0.7410720   0.4830489), wk =   0.0063492
        k(  108) = (  -0.2000000   0.7410720  -0.4830489), wk =   0.0063492
        k(  109) = (   0.2000000  -0.7410720  -0.4830489), wk =   0.0063492
        k(  110) = (  -0.2000000  -0.7410720   0.7245734), wk =   0.0063492
        k(  111) = (  -0.2000000   0.7410720  -0.7245734), wk =   0.0063492
        k(  112) = (   0.2000000  -0.7410720  -0.7245734), wk =   0.0063492
        k(  113) = (  -0.2000000  -0.7410720   0.9660979), wk =   0.0063492
        k(  114) = (  -0.2000000   0.7410720  -0.9660979), wk =   0.0063492
        k(  115) = (   0.2000000  -0.7410720  -0.9660979), wk =   0.0063492
        k(  116) = (  -0.4000000   0.0000000   0.2415245), wk =   0.0063492
        k(  117) = (  -0.4000000   0.0000000   0.4830489), wk =   0.0063492
        k(  118) = (  -0.4000000   0.0000000   0.7245734), wk =   0.0063492
        k(  119) = (  -0.4000000   0.0000000   0.9660979), wk =   0.0063492
        k(  120) = (  -0.4000000   0.2470240   0.0000000), wk =   0.0063492
        k(  121) = (  -0.4000000  -0.2470240   0.2415245), wk =   0.0063492
        k(  122) = (  -0.4000000   0.2470240  -0.2415245), wk =   0.0063492
        k(  123) = (   0.4000000  -0.2470240  -0.2415245), wk =   0.0063492
        k(  124) = (  -0.4000000  -0.2470240   0.4830489), wk =   0.0063492
        k(  125) = (  -0.4000000   0.2470240  -0.4830489), wk =   0.0063492
        k(  126) = (   0.4000000  -0.2470240  -0.4830489), wk =   0.0063492
        k(  127) = (  -0.4000000  -0.2470240   0.7245734), wk =   0.0063492
        k(  128) = (  -0.4000000   0.2470240  -0.7245734), wk =   0.0063492
        k(  129) = (   0.4000000  -0.2470240  -0.7245734), wk =   0.0063492
        k(  130) = (  -0.4000000  -0.2470240   0.9660979), wk =   0.0063492
        k(  131) = (  -0.4000000   0.2470240  -0.9660979), wk =   0.0063492
        k(  132) = (   0.4000000  -0.2470240  -0.9660979), wk =   0.0063492
        k(  133) = (  -0.4000000   0.4940480   0.0000000), wk =   0.0063492
        k(  134) = (  -0.4000000  -0.4940480   0.2415245), wk =   0.0063492
        k(  135) = (  -0.4000000   0.4940480  -0.2415245), wk =   0.0063492
        k(  136) = (   0.4000000  -0.4940480  -0.2415245), wk =   0.0063492
        k(  137) = (  -0.4000000  -0.4940480   0.4830489), wk =   0.0063492
        k(  138) = (  -0.4000000   0.4940480  -0.4830489), wk =   0.0063492
        k(  139) = (   0.4000000  -0.4940480  -0.4830489), wk =   0.0063492
        k(  140) = (  -0.4000000  -0.4940480   0.7245734), wk =   0.0063492
        k(  141) = (  -0.4000000   0.4940480  -0.7245734), wk =   0.0063492
        k(  142) = (   0.4000000  -0.4940480  -0.7245734), wk =   0.0063492
        k(  143) = (  -0.4000000  -0.4940480   0.9660979), wk =   0.0063492
        k(  144) = (  -0.4000000   0.4940480  -0.9660979), wk =   0.0063492
        k(  145) = (   0.4000000  -0.4940480  -0.9660979), wk =   0.0063492
        k(  146) = (  -0.4000000   0.7410720   0.0000000), wk =   0.0063492
        k(  147) = (  -0.4000000  -0.7410720   0.2415245), wk =   0.0063492
        k(  148) = (  -0.4000000   0.7410720  -0.2415245), wk =   0.0063492
        k(  149) = (   0.4000000  -0.7410720  -0.2415245), wk =   0.0063492
        k(  150) = (  -0.4000000  -0.7410720   0.4830489), wk =   0.0063492
        k(  151) = (  -0.4000000   0.7410720  -0.4830489), wk =   0.0063492
        k(  152) = (   0.4000000  -0.7410720  -0.4830489), wk =   0.0063492
        k(  153) = (  -0.4000000  -0.7410720   0.7245734), wk =   0.0063492
        k(  154) = (  -0.4000000   0.7410720  -0.7245734), wk =   0.0063492
        k(  155) = (   0.4000000  -0.7410720  -0.7245734), wk =   0.0063492
        k(  156) = (  -0.4000000  -0.7410720   0.9660979), wk =   0.0063492
        k(  157) = (  -0.4000000   0.7410720  -0.9660979), wk =   0.0063492
        k(  158) = (   0.4000000  -0.7410720  -0.9660979), wk =   0.0063492

                       cryst. coord.
        k(    1) = (   0.0000000   0.0000000   0.0000000), wk =   0.0031746
        k(    2) = (   0.0000000   0.0000000   0.1111111), wk =   0.0063492
        k(    3) = (   0.0000000   0.0000000   0.2222222), wk =   0.0063492
        k(    4) = (   0.0000000   0.0000000   0.3333333), wk =   0.0063492
        k(    5) = (   0.0000000   0.0000000   0.4444444), wk =   0.0063492
        k(    6) = (   0.0000000   0.1428571   0.0000000), wk =   0.0063492
        k(    7) = (   0.0000000   0.1428571   0.1111111), wk =   0.0063492
        k(    8) = (   0.0000000   0.1428571   0.2222222), wk =   0.0063492
        k(    9) = (   0.0000000   0.1428571   0.3333333), wk =   0.0063492
        k(   10) = (   0.0000000   0.1428571   0.4444444), wk =   0.0063492
        k(   11) = (   0.0000000   0.2857143   0.0000000), wk =   0.0063492
        k(   12) = (   0.0000000   0.2857143   0.1111111), wk =   0.0063492
        k(   13) = (   0.0000000   0.2857143   0.2222222), wk =   0.0063492
        k(   14) = (   0.0000000   0.2857143   0.3333333), wk =   0.0063492
        k(   15) = (   0.0000000   0.2857143   0.4444444), wk =   0.0063492
        k(   16) = (   0.0000000   0.4285714   0.0000000), wk =   0.0063492
        k(   17) = (   0.0000000   0.4285714   0.1111111), wk =   0.0063492
        k(   18) = (   0.0000000   0.4285714   0.2222222), wk =   0.0063492
        k(   19) = (   0.0000000   0.4285714   0.3333333), wk =   0.0063492
        k(   20) = (   0.0000000   0.4285714   0.4444444), wk =   0.0063492
        k(   21) = (   0.2000000   0.0000000   0.0000000), wk =   0.0063492
        k(   22) = (   0.2000000   0.0000000   0.1111111), wk =   0.0063492
        k(   23) = (   0.2000000   0.0000000   0.2222222), wk =   0.0063492
        k(   24) = (   0.2000000   0.0000000   0.3333333), wk =   0.0063492
        k(   25) = (   0.2000000   0.0000000   0.4444444), wk =   0.0063492
        k(   26) = (   0.2000000   0.1428571   0.0000000), wk =   0.0063492
        k(   27) = (   0.2000000   0.1428571   0.1111111), wk =   0.0063492
        k(   28) = (   0.2000000   0.1428571   0.2222222), wk =   0.0063492
        k(   29) = (   0.2000000   0.1428571   0.3333333), wk =   0.0063492
        k(   30) = (   0.2000000   0.1428571   0.4444444), wk =   0.0063492
        k(   31) = (   0.2000000   0.2857143   0.0000000), wk =   0.0063492
        k(   32) = (   0.2000000   0.2857143   0.1111111), wk =   0.0063492
        k(   33) = (   0.2000000   0.2857143   0.2222222), wk =   0.0063492
        k(   34) = (   0.2000000   0.2857143   0.3333333), wk =   0.0063492
        k(   35) = (   0.2000000   0.2857143   0.4444444), wk =   0.0063492
        k(   36) = (   0.2000000   0.4285714   0.0000000), wk =   0.0063492
        k(   37) = (   0.2000000   0.4285714   0.1111111), wk =   0.0063492
        k(   38) = (   0.2000000   0.4285714   0.2222222), wk =   0.0063492
        k(   39) = (   0.2000000   0.4285714   0.3333333), wk =   0.0063492
        k(   40) = (   0.2000000   0.4285714   0.4444444), wk =   0.0063492
        k(   41) = (   0.4000000   0.0000000   0.0000000), wk =   0.0063492
        k(   42) = (   0.4000000   0.0000000   0.1111111), wk =   0.0063492
        k(   43) = (   0.4000000   0.0000000   0.2222222), wk =   0.0063492
        k(   44) = (   0.4000000   0.0000000   0.3333333), wk =   0.0063492
        k(   45) = (   0.4000000   0.0000000   0.4444444), wk =   0.0063492
        k(   46) = (   0.4000000   0.1428571   0.0000000), wk =   0.0063492
        k(   47) = (   0.4000000   0.1428571   0.1111111), wk =   0.0063492
        k(   48) = (   0.4000000   0.1428571   0.2222222), wk =   0.0063492
        k(   49) = (   0.4000000   0.1428571   0.3333333), wk =   0.0063492
        k(   50) = (   0.4000000   0.1428571   0.4444444), wk =   0.0063492
        k(   51) = (   0.4000000   0.2857143   0.0000000), wk =   0.0063492
        k(   52) = (   0.4000000   0.2857143   0.1111111), wk =   0.0063492
        k(   53) = (   0.4000000   0.2857143   0.2222222), wk =   0.0063492
        k(   54) = (   0.4000000   0.2857143   0.3333333), wk =   0.0063492
        k(   55) = (   0.4000000   0.2857143   0.4444444), wk =   0.0063492
        k(   56) = (   0.4000000   0.4285714   0.0000000), wk =   0.0063492
        k(   57) = (   0.4000000   0.4285714   0.1111111), wk =   0.0063492
        k(   58) = (   0.4000000   0.4285714   0.2222222), wk =   0.0063492
        k(   59) = (   0.4000000   0.4285714   0.3333333), wk =   0.0063492
        k(   60) = (   0.4000000   0.4285714   0.4444444), wk =   0.0063492
        k(   61) = (   0.0000000  -0.1428571   0.1111111), wk =   0.0063492
        k(   62) = (   0.0000000  -0.1428571   0.2222222), wk =   0.0063492
        k(   63) = (   0.0000000  -0.1428571   0.3333333), wk =   0.0063492
        k(   64) = (   0.0000000  -0.1428571   0.4444444), wk =   0.0063492
        k(   65) = (   0.0000000  -0.2857143   0.1111111), wk =   0.0063492
        k(   66) = (   0.0000000  -0.2857143   0.2222222), wk =   0.0063492
        k(   67) = (   0.0000000  -0.2857143   0.3333333), wk =   0.0063492
        k(   68) = (   0.0000000  -0.2857143   0.4444444), wk =   0.0063492
        k(   69) = (   0.0000000  -0.4285714   0.1111111), wk =   0.0063492
        k(   70) = (   0.0000000  -0.4285714   0.2222222), wk =   0.0063492
        k(   71) = (   0.0000000  -0.4285714   0.3333333), wk =   0.0063492
        k(   72) = (   0.0000000  -0.4285714   0.4444444), wk =   0.0063492
        k(   73) = (  -0.2000000   0.0000000   0.1111111), wk =   0.0063492
        k(   74) = (  -0.2000000   0.0000000   0.2222222), wk =   0.0063492
        k(   75) = (  -0.2000000   0.0000000   0.3333333), wk =   0.0063492
        k(   76) = (  -0.2000000   0.0000000   0.4444444), wk =   0.0063492
        k(   77) = (  -0.2000000   0.1428571   0.0000000), wk =   0.0063492
        k(   78) = (  -0.2000000  -0.1428571   0.1111111), wk =   0.0063492
        k(   79) = (  -0.2000000   0.1428571  -0.1111111), wk =   0.0063492
        k(   80) = (   0.2000000  -0.1428571  -0.1111111), wk =   0.0063492
        k(   81) = (  -0.2000000  -0.1428571   0.2222222), wk =   0.0063492
        k(   82) = (  -0.2000000   0.1428571  -0.2222222), wk =   0.0063492
        k(   83) = (   0.2000000  -0.1428571  -0.2222222), wk =   0.0063492
        k(   84) = (  -0.2000000  -0.1428571   0.3333333), wk =   0.0063492
        k(   85) = (  -0.2000000   0.1428571  -0.3333333), wk =   0.0063492
        k(   86) = (   0.2000000  -0.1428571  -0.3333333), wk =   0.0063492
        k(   87) = (  -0.2000000  -0.1428571   0.4444444), wk =   0.0063492
        k(   88) = (  -0.2000000   0.1428571  -0.4444444), wk =   0.0063492
        k(   89) = (   0.2000000  -0.1428571  -0.4444444), wk =   0.0063492
        k(   90) = (  -0.2000000   0.2857143   0.0000000), wk =   0.0063492
        k(   91) = (  -0.2000000  -0.2857143   0.1111111), wk =   0.0063492
        k(   92) = (  -0.2000000   0.2857143  -0.1111111), wk =   0.0063492
        k(   93) = (   0.2000000  -0.2857143  -0.1111111), wk =   0.0063492
        k(   94) = (  -0.2000000  -0.2857143   0.2222222), wk =   0.0063492
        k(   95) = (  -0.2000000   0.2857143  -0.2222222), wk =   0.0063492
        k(   96) = (   0.2000000  -0.2857143  -0.2222222), wk =   0.0063492
        k(   97) = (  -0.2000000  -0.2857143   0.3333333), wk =   0.0063492
        k(   98) = (  -0.2000000   0.2857143  -0.3333333), wk =   0.0063492
        k(   99) = (   0.2000000  -0.2857143  -0.3333333), wk =   0.0063492
        k(  100) = (  -0.2000000  -0.2857143   0.4444444), wk =   0.0063492
        k(  101) = (  -0.2000000   0.2857143  -0.4444444), wk =   0.0063492
        k(  102) = (   0.2000000  -0.2857143  -0.4444444), wk =   0.0063492
        k(  103) = (  -0.2000000   0.4285714   0.0000000), wk =   0.0063492
        k(  104) = (  -0.2000000  -0.4285714   0.1111111), wk =   0.0063492
        k(  105) = (  -0.2000000   0.4285714  -0.1111111), wk =   0.0063492
        k(  106) = (   0.2000000  -0.4285714  -0.1111111), wk =   0.0063492
        k(  107) = (  -0.2000000  -0.4285714   0.2222222), wk =   0.0063492
        k(  108) = (  -0.2000000   0.4285714  -0.2222222), wk =   0.0063492
        k(  109) = (   0.2000000  -0.4285714  -0.2222222), wk =   0.0063492
        k(  110) = (  -0.2000000  -0.4285714   0.3333333), wk =   0.0063492
        k(  111) = (  -0.2000000   0.4285714  -0.3333333), wk =   0.0063492
        k(  112) = (   0.2000000  -0.4285714  -0.3333333), wk =   0.0063492
        k(  113) = (  -0.2000000  -0.4285714   0.4444444), wk =   0.0063492
        k(  114) = (  -0.2000000   0.4285714  -0.4444444), wk =   0.0063492
        k(  115) = (   0.2000000  -0.4285714  -0.4444444), wk =   0.0063492
        k(  116) = (  -0.4000000   0.0000000   0.1111111), wk =   0.0063492
        k(  117) = (  -0.4000000   0.0000000   0.2222222), wk =   0.0063492
        k(  118) = (  -0.4000000   0.0000000   0.3333333), wk =   0.0063492
        k(  119) = (  -0.4000000   0.0000000   0.4444444), wk =   0.0063492
        k(  120) = (  -0.4000000   0.1428571   0.0000000), wk =   0.0063492
        k(  121) = (  -0.4000000  -0.1428571   0.1111111), wk =   0.0063492
        k(  122) = (  -0.4000000   0.1428571  -0.1111111), wk =   0.0063492
        k(  123) = (   0.4000000  -0.1428571  -0.1111111), wk =   0.0063492
        k(  124) = (  -0.4000000  -0.1428571   0.2222222), wk =   0.0063492
        k(  125) = (  -0.4000000   0.1428571  -0.2222222), wk =   0.0063492
        k(  126) = (   0.4000000  -0.1428571  -0.2222222), wk =   0.0063492
        k(  127) = (  -0.4000000  -0.1428571   0.3333333), wk =   0.0063492
        k(  128) = (  -0.4000000   0.1428571  -0.3333333), wk =   0.0063492
        k(  129) = (   0.4000000  -0.1428571  -0.3333333), wk =   0.0063492
        k(  130) = (  -0.4000000  -0.1428571   0.4444444), wk =   0.0063492
        k(  131) = (  -0.4000000   0.1428571  -0.4444444), wk =   0.0063492
        k(  132) = (   0.4000000  -0.1428571  -0.4444444), wk =   0.0063492
        k(  133) = (  -0.4000000   0.2857143   0.0000000), wk =   0.0063492
        k(  134) = (  -0.4000000  -0.2857143   0.1111111), wk =   0.0063492
        k(  135) = (  -0.4000000   0.2857143  -0.1111111), wk =   0.0063492
        k(  136) = (   0.4000000  -0.2857143  -0.1111111), wk =   0.0063492
        k(  137) = (  -0.4000000  -0.2857143   0.2222222), wk =   0.0063492
        k(  138) = (  -0.4000000   0.2857143  -0.2222222), wk =   0.0063492
        k(  139) = (   0.4000000  -0.2857143  -0.2222222), wk =   0.0063492
        k(  140) = (  -0.4000000  -0.2857143   0.3333333), wk =   0.0063492
        k(  141) = (  -0.4000000   0.2857143  -0.3333333), wk =   0.0063492
        k(  142) = (   0.4000000  -0.2857143  -0.3333333), wk =   0.0063492
        k(  143) = (  -0.4000000  -0.2857143   0.4444444), wk =   0.0063492
        k(  144) = (  -0.4000000   0.2857143  -0.4444444), wk =   0.0063492
        k(  145) = (   0.4000000  -0.2857143  -0.4444444), wk =   0.0063492
        k(  146) = (  -0.4000000   0.4285714   0.0000000), wk =   0.0063492
        k(  147) = (  -0.4000000  -0.4285714   0.1111111), wk =   0.0063492
        k(  148) = (  -0.4000000   0.4285714  -0.1111111), wk =   0.0063492
        k(  149) = (   0.4000000  -0.4285714  -0.1111111), wk =   0.0063492
        k(  150) = (  -0.4000000  -0.4285714   0.2222222), wk =   0.0063492
        k(  151) = (  -0.4000000   0.4285714  -0.2222222), wk =   0.0063492
        k(  152) = (   0.4000000  -0.4285714  -0.2222222), wk =   0.0063492
        k(  153) = (  -0.4000000  -0.4285714   0.3333333), wk =   0.0063492
        k(  154) = (  -0.4000000   0.4285714  -0.3333333), wk =   0.0063492
        k(  155) = (   0.4000000  -0.4285714  -0.3333333), wk =   0.0063492
        k(  156) = (  -0.4000000  -0.4285714   0.4444444), wk =   0.0063492
        k(  157) = (  -0.4000000   0.4285714  -0.4444444), wk =   0.0063492
        k(  158) = (   0.4000000  -0.4285714  -0.4444444), wk =   0.0063492

     Dense  grid:  1338043 G-vectors     FFT dimensions: ( 216, 125, 100)

     Smooth grid:   301725 G-vectors     FFT dimensions: ( 135,  75,  60)

     Dynamical RAM for                 wfc:       5.46 MB

     Dynamical RAM for     wfc (w. buffer):    1732.02 MB

     Dynamical RAM for           str. fact:       6.81 MB

     Dynamical RAM for           local pot:       0.00 MB

     Dynamical RAM for          nlocal pot:      13.42 MB

     Dynamical RAM for                qrad:      10.54 MB

     Dynamical RAM for          rho,v,vnew:      21.33 MB

     Dynamical RAM for               rhoin:       7.11 MB

     Dynamical RAM for            rho*nmix:      54.45 MB

     Dynamical RAM for           G-vectors:       6.57 MB

     Dynamical RAM for          h,s,v(r/c):       2.38 MB

     Dynamical RAM for          <psi|beta>:       0.49 MB

     Dynamical RAM for                 psi:      10.93 MB

     Dynamical RAM for                hpsi:      10.93 MB

     Dynamical RAM for                spsi:      10.93 MB

     Dynamical RAM for      wfcinit/wfcrot:      13.56 MB

     Dynamical RAM for           addusdens:     345.39 MB

     Dynamical RAM for          addusforce:     396.56 MB

     Dynamical RAM for         addusstress:     344.54 MB

     Estimated static dynamical RAM per process >       1.83 GB

     Estimated max dynamical RAM per process >       2.22 GB

     Estimated total dynamical RAM >      26.58 GB

     Check: negative core charge=   -0.000003
     Generating pointlists ...
     new r_m :   0.0753 (alat units)  1.5295 (a.u.) for type    1
     new r_m :   0.0899 (alat units)  1.8273 (a.u.) for type    2
     new r_m :   0.0591 (alat units)  1.2009 (a.u.) for type    3
     new r_m :   0.0591 (alat units)  1.2009 (a.u.) for type    4

     Initial potential from superposition of free atoms

     starting charge  188.99132, renormalised to  189.00000
     Starting wfcs are  137 randomized atomic wfcs
     Checking if some PAW data can be deallocated... 
       PAW data deallocated on   10 nodes for type:  1
       PAW data deallocated on    4 nodes for type:  3

     total cpu time spent up to now is     2447.4 secs

     Self-consistent Calculation

     iteration #  1     ecut=   100.00 Ry     beta= 0.40
     Davidson diagonalization with overlap
     ethr =  1.00E-02,  avg # of iterations =  3.0

     negative rho (up, down):  0.000E+00 1.213E-04

     total cpu time spent up to now is     9459.0 secs

     total energy              =   -2123.84674275 Ry
     estimated scf accuracy    <       7.00182888 Ry

     total magnetization       =    19.00 Bohr mag/cell
     absolute magnetization    =    19.00 Bohr mag/cell

     iteration #  2     ecut=   100.00 Ry     beta= 0.40
     Davidson diagonalization with overlap
     ethr =  3.70E-03,  avg # of iterations =  2.0

     negative rho (up, down):  0.000E+00 8.016E-05

     total cpu time spent up to now is    16123.5 secs

     total energy              =   -2121.24984747 Ry
     estimated scf accuracy    <      31.92408588 Ry

     total magnetization       =     8.02 Bohr mag/cell
     absolute magnetization    =     9.81 Bohr mag/cell

     iteration #  3     ecut=   100.00 Ry     beta= 0.40
     Davidson diagonalization with overlap
     ethr =  3.70E-03,  avg # of iterations =  2.3

     negative rho (up, down):  0.000E+00 6.221E-05

     total cpu time spent up to now is    21891.0 secs

     total energy              =   -2123.58442836 Ry
     estimated scf accuracy    <      57.02463014 Ry

     total magnetization       =     4.98 Bohr mag/cell
     absolute magnetization    =     7.15 Bohr mag/cell

     iteration #  4     ecut=   100.00 Ry     beta= 0.40
     Davidson diagonalization with overlap
     ethr =  3.70E-03,  avg # of iterations =  2.0

     negative rho (up, down):  0.000E+00 7.648E-05

     total cpu time spent up to now is    27413.7 secs

     total energy              =   -2125.09128321 Ry
     estimated scf accuracy    <      20.69856450 Ry

     total magnetization       =    13.00 Bohr mag/cell
     absolute magnetization    =    13.27 Bohr mag/cell

     iteration #  5     ecut=   100.00 Ry     beta= 0.40
     Davidson diagonalization with overlap
     ethr =  3.70E-03,  avg # of iterations =  1.5

     negative rho (up, down):  0.000E+00 1.037E-04

     total cpu time spent up to now is    32711.0 secs

     total energy              =   -2125.57772792 Ry
     estimated scf accuracy    <       5.79567631 Ry

     total magnetization       =    16.40 Bohr mag/cell
     absolute magnetization    =    16.51 Bohr mag/cell

     iteration #  6     ecut=   100.00 Ry     beta= 0.40
     Davidson diagonalization with overlap
     ethr =  3.07E-03,  avg # of iterations =  1.0

     negative rho (up, down):  0.000E+00 1.439E-04

     total cpu time spent up to now is    37880.3 secs

     total energy              =   -2125.69773798 Ry
     estimated scf accuracy    <       9.51968374 Ry

     total magnetization       =    15.07 Bohr mag/cell
     absolute magnetization    =    15.30 Bohr mag/cell

     iteration #  7     ecut=   100.00 Ry     beta= 0.40
     Davidson diagonalization with overlap
     ethr =  3.07E-03,  avg # of iterations =  1.0

     negative rho (up, down):  0.000E+00 2.523E-04

     total cpu time spent up to now is    43048.1 secs

     total energy              =   -2126.04488867 Ry
     estimated scf accuracy    <       1.11406032 Ry

     total magnetization       =    19.07 Bohr mag/cell
     absolute magnetization    =    19.07 Bohr mag/cell

     iteration #  8     ecut=   100.00 Ry     beta= 0.40
     Davidson diagonalization with overlap
     ethr =  5.89E-04,  avg # of iterations =  1.0

     negative rho (up, down):  0.000E+00 4.199E-04

     total cpu time spent up to now is    48222.7 secs

     total energy              =   -2126.03415996 Ry
     estimated scf accuracy    <       0.38122773 Ry

     total magnetization       =    19.00 Bohr mag/cell
     absolute magnetization    =    19.00 Bohr mag/cell

     iteration #  9     ecut=   100.00 Ry     beta= 0.40
     Davidson diagonalization with overlap
     c_bands:  1 eigenvalues not converged
     ethr =  2.02E-04,  avg # of iterations =  4.4

     negative rho (up, down):  0.000E+00 5.001E-04

     total cpu time spent up to now is    53937.0 secs

     total energy              =   -2126.04540928 Ry
     estimated scf accuracy    <       0.14425858 Ry

     total magnetization       =    19.00 Bohr mag/cell
     absolute magnetization    =    19.01 Bohr mag/cell

     iteration # 10     ecut=   100.00 Ry     beta= 0.40
     Davidson diagonalization with overlap
     c_bands:  1 eigenvalues not converged
     c_bands:  1 eigenvalues not converged
     c_bands:  1 eigenvalues not converged
     c_bands:  1 eigenvalues not converged
     c_bands:  1 eigenvalues not converged
     c_bands:  1 eigenvalues not converged
     c_bands:  1 eigenvalues not converged
     c_bands:  1 eigenvalues not converged
     c_bands:  1 eigenvalues not converged
     c_bands:  1 eigenvalues not converged
     c_bands:  3 eigenvalues not converged
     c_bands:  1 eigenvalues not converged
     ethr =  7.63E-05,  avg # of iterations =  9.6

     negative rho (up, down):  0.000E+00 7.196E-04

     total cpu time spent up to now is    60456.3 secs

     total energy              =   -2126.04972039 Ry
     estimated scf accuracy    <       0.06958798 Ry

     total magnetization       =    19.00 Bohr mag/cell
     absolute magnetization    =    19.01 Bohr mag/cell

     iteration # 11     ecut=   100.00 Ry     beta= 0.40
     Davidson diagonalization with overlap
     c_bands:  1 eigenvalues not converged
     c_bands:  1 eigenvalues not converged
     c_bands:  1 eigenvalues not converged
     c_bands:  1 eigenvalues not converged
     c_bands:  1 eigenvalues not converged
     ethr =  3.68E-05,  avg # of iterations =  8.3

     negative rho (up, down):  0.000E+00 8.671E-04

     total cpu time spent up to now is    66963.5 secs

     total energy              =   -2126.05337050 Ry
     estimated scf accuracy    <       0.03437880 Ry

     total magnetization       =    19.00 Bohr mag/cell
     absolute magnetization    =    19.02 Bohr mag/cell

     iteration # 12     ecut=   100.00 Ry     beta= 0.40
     Davidson diagonalization with overlap
     c_bands:  1 eigenvalues not converged
     c_bands:  1 eigenvalues not converged
     c_bands:  1 eigenvalues not converged
     c_bands:  1 eigenvalues not converged
     c_bands:  1 eigenvalues not converged
     ethr =  1.82E-05,  avg # of iterations =  5.8

     negative rho (up, down):  0.000E+00 8.729E-04

     total cpu time spent up to now is    73082.8 secs

     total energy              =   -2126.05715980 Ry
     estimated scf accuracy    <       0.06598300 Ry

     total magnetization       =    19.00 Bohr mag/cell
     absolute magnetization    =    19.03 Bohr mag/cell

     iteration # 13     ecut=   100.00 Ry     beta= 0.40
     Davidson diagonalization with overlap
     ethr =  1.82E-05,  avg # of iterations =  1.0

     negative rho (up, down):  0.000E+00 8.996E-04

     total cpu time spent up to now is    78328.1 secs

     total energy              =   -2126.05809267 Ry
     estimated scf accuracy    <       0.01260158 Ry

     total magnetization       =    19.00 Bohr mag/cell
     absolute magnetization    =    19.03 Bohr mag/cell

     iteration # 14     ecut=   100.00 Ry     beta= 0.40
     Davidson diagonalization with overlap
     c_bands:  1 eigenvalues not converged
     c_bands:  1 eigenvalues not converged
     c_bands:  1 eigenvalues not converged
     c_bands:  1 eigenvalues not converged
     c_bands:  1 eigenvalues not converged
     c_bands:  1 eigenvalues not converged
     c_bands:  1 eigenvalues not converged
     c_bands:  1 eigenvalues not converged
     c_bands:  2 eigenvalues not converged
     ethr =  6.67E-06,  avg # of iterations =  3.5

     negative rho (up, down):  0.000E+00 9.060E-04

     total cpu time spent up to now is    83940.3 secs

     total energy              =   -2126.05882634 Ry
     estimated scf accuracy    <       0.00101432 Ry

     total magnetization       =    19.00 Bohr mag/cell
     absolute magnetization    =    19.04 Bohr mag/cell

     iteration # 15     ecut=   100.00 Ry     beta= 0.40
     Davidson diagonalization with overlap
     c_bands:  1 eigenvalues not converged
     c_bands:  1 eigenvalues not converged
     c_bands:  1 eigenvalues not converged
     c_bands:  1 eigenvalues not converged
     c_bands:  1 eigenvalues not converged
     c_bands:  1 eigenvalues not converged
     c_bands:  1 eigenvalues not converged
     c_bands:  1 eigenvalues not converged
     c_bands:  1 eigenvalues not converged
     c_bands:  1 eigenvalues not converged
     c_bands:  1 eigenvalues not converged
     c_bands:  1 eigenvalues not converged
     c_bands:  1 eigenvalues not converged
     c_bands:  1 eigenvalues not converged
     c_bands:  1 eigenvalues not converged
     c_bands:  1 eigenvalues not converged
     c_bands:  1 eigenvalues not converged
     c_bands:  1 eigenvalues not converged
     c_bands:  1 eigenvalues not converged
     c_bands:  1 eigenvalues not converged
     c_bands:  1 eigenvalues not converged
     c_bands:  1 eigenvalues not converged
     c_bands:  1 eigenvalues not converged
     c_bands:  1 eigenvalues not converged
     c_bands:  2 eigenvalues not converged
     ethr =  5.37E-07,  avg # of iterations = 10.9

     negative rho (up, down):  0.000E+00 8.851E-04

     total cpu time spent up to now is    94954.6 secs

     total energy              =   -2126.05952106 Ry
     estimated scf accuracy    <       0.00038302 Ry

     total magnetization       =    19.00 Bohr mag/cell
     absolute magnetization    =    19.05 Bohr mag/cell

     iteration # 16     ecut=   100.00 Ry     beta= 0.40
     Davidson diagonalization with overlap
     c_bands:  1 eigenvalues not converged
     c_bands:  1 eigenvalues not converged
     ethr =  2.03E-07,  avg # of iterations =  2.3

     negative rho (up, down):  0.000E+00 8.913E-04

     total cpu time spent up to now is   100531.8 secs

     total energy              =   -2126.05949897 Ry
     estimated scf accuracy    <       0.00558255 Ry

     total magnetization       =    19.00 Bohr mag/cell
     absolute magnetization    =    19.05 Bohr mag/cell

     iteration # 17     ecut=   100.00 Ry     beta= 0.40
     Davidson diagonalization with overlap
     ethr =  2.03E-07,  avg # of iterations =  1.0

     negative rho (up, down):  0.000E+00 8.809E-04

     total cpu time spent up to now is   105812.1 secs

     total energy              =   -2126.05953091 Ry
     estimated scf accuracy    <       0.00094899 Ry

     total magnetization       =    19.00 Bohr mag/cell
     absolute magnetization    =    19.05 Bohr mag/cell

     iteration # 18     ecut=   100.00 Ry     beta= 0.40
     Davidson diagonalization with overlap
     ethr =  2.03E-07,  avg # of iterations =  1.0

     negative rho (up, down):  0.000E+00 8.796E-04

     total cpu time spent up to now is   111047.4 secs

     total energy              =   -2126.05955981 Ry
     estimated scf accuracy    <       0.00042679 Ry

     total magnetization       =    19.00 Bohr mag/cell
     absolute magnetization    =    19.05 Bohr mag/cell

     iteration # 19     ecut=   100.00 Ry     beta= 0.40
     Davidson diagonalization with overlap
     ethr =  2.03E-07,  avg # of iterations =  1.0

     negative rho (up, down):  0.000E+00 8.777E-04

     total cpu time spent up to now is   116270.3 secs

     total energy              =   -2126.05956703 Ry
     estimated scf accuracy    <       0.00013153 Ry

     total magnetization       =    19.00 Bohr mag/cell
     absolute magnetization    =    19.05 Bohr mag/cell

     iteration # 20     ecut=   100.00 Ry     beta= 0.40
     Davidson diagonalization with overlap
     ethr =  6.96E-08,  avg # of iterations =  1.0

     negative rho (up, down):  0.000E+00 8.785E-04

     total cpu time spent up to now is   121540.5 secs

     total energy              =   -2126.05956964 Ry
     estimated scf accuracy    <       0.00001617 Ry

     total magnetization       =    19.00 Bohr mag/cell
     absolute magnetization    =    19.05 Bohr mag/cell

     iteration # 21     ecut=   100.00 Ry     beta= 0.40
     Davidson diagonalization with overlap
     ethr =  8.55E-09,  avg # of iterations =  1.7

     negative rho (up, down):  0.000E+00 8.794E-04

     total cpu time spent up to now is   126984.4 secs

     total energy              =   -2126.05957096 Ry
     estimated scf accuracy    <       0.00000836 Ry

     total magnetization       =    19.00 Bohr mag/cell
     absolute magnetization    =    19.05 Bohr mag/cell

     iteration # 22     ecut=   100.00 Ry     beta= 0.40
     Davidson diagonalization with overlap
     ethr =  4.43E-09,  avg # of iterations =  1.7

     negative rho (up, down):  0.000E+00 8.802E-04

     total cpu time spent up to now is   132428.0 secs

     total energy              =   -2126.05957181 Ry
     estimated scf accuracy    <       0.00000079 Ry

     total magnetization       =    19.00 Bohr mag/cell
     absolute magnetization    =    19.05 Bohr mag/cell

     iteration # 23     ecut=   100.00 Ry     beta= 0.40
     Davidson diagonalization with overlap
     ethr =  4.18E-10,  avg # of iterations =  5.4

     negative rho (up, down):  0.000E+00 8.800E-04

     total cpu time spent up to now is   142728.5 secs

     total energy              =   -2126.05957276 Ry
     estimated scf accuracy    <       0.00000217 Ry

     total magnetization       =    19.00 Bohr mag/cell
     absolute magnetization    =    19.05 Bohr mag/cell

     iteration # 24     ecut=   100.00 Ry     beta= 0.40
     Davidson diagonalization with overlap
     ethr =  4.18E-10,  avg # of iterations =  2.0

     negative rho (up, down):  0.000E+00 8.799E-04

     total cpu time spent up to now is   148337.8 secs

     total energy              =   -2126.05957296 Ry
     estimated scf accuracy    <       0.00000115 Ry

     total magnetization       =    19.00 Bohr mag/cell
     absolute magnetization    =    19.05 Bohr mag/cell

     iteration # 25     ecut=   100.00 Ry     beta= 0.40
     Davidson diagonalization with overlap
     ethr =  4.18E-10,  avg # of iterations =  1.0

     negative rho (up, down):  0.000E+00 8.798E-04

     total cpu time spent up to now is   153594.3 secs

     total energy              =   -2126.05957301 Ry
     estimated scf accuracy    <       0.00000017 Ry

     total magnetization       =    19.00 Bohr mag/cell
     absolute magnetization    =    19.05 Bohr mag/cell

     iteration # 26     ecut=   100.00 Ry     beta= 0.40
     Davidson diagonalization with overlap
     ethr =  9.10E-11,  avg # of iterations =  1.7

     negative rho (up, down):  0.000E+00 8.798E-04

     total cpu time spent up to now is   158973.2 secs

     total energy              =   -2126.05957304 Ry
     estimated scf accuracy    <       0.00000011 Ry

     total magnetization       =    19.00 Bohr mag/cell
     absolute magnetization    =    19.05 Bohr mag/cell

     iteration # 27     ecut=   100.00 Ry     beta= 0.40
     Davidson diagonalization with overlap
     ethr =  5.57E-11,  avg # of iterations =  1.1

     negative rho (up, down):  0.000E+00 8.797E-04

     total cpu time spent up to now is   164257.3 secs

     total energy              =   -2126.05957306 Ry
     estimated scf accuracy    <       0.00000021 Ry

     total magnetization       =    19.00 Bohr mag/cell
     absolute magnetization    =    19.05 Bohr mag/cell

     iteration # 28     ecut=   100.00 Ry     beta= 0.40
     Davidson diagonalization with overlap
     ethr =  5.57E-11,  avg # of iterations =  2.0

     negative rho (up, down):  0.000E+00 8.797E-04

     total cpu time spent up to now is   169841.9 secs

     total energy              =   -2126.05957308 Ry
     estimated scf accuracy    <          4.2E-09 Ry

     total magnetization       =    19.00 Bohr mag/cell
     absolute magnetization    =    19.05 Bohr mag/cell

     iteration # 29     ecut=   100.00 Ry     beta= 0.40
     Davidson diagonalization with overlap
     ethr =  2.21E-12,  avg # of iterations =  4.9

     negative rho (up, down):  0.000E+00 8.797E-04

     total cpu time spent up to now is   177761.9 secs

     total energy              =   -2126.05957308 Ry
     estimated scf accuracy    <          5.7E-09 Ry

     total magnetization       =    19.00 Bohr mag/cell
     absolute magnetization    =    19.05 Bohr mag/cell

     iteration # 30     ecut=   100.00 Ry     beta= 0.40
     Davidson diagonalization with overlap
     ethr =  2.21E-12,  avg # of iterations =  2.0

     negative rho (up, down):  0.000E+00 8.797E-04

     total cpu time spent up to now is   183394.8 secs

     total energy              =   -2126.05957308 Ry
     estimated scf accuracy    <          4.5E-09 Ry

     total magnetization       =    19.00 Bohr mag/cell
     absolute magnetization    =    19.05 Bohr mag/cell

     iteration # 31     ecut=   100.00 Ry     beta= 0.40
     Davidson diagonalization with overlap
     ethr =  2.21E-12,  avg # of iterations =  1.0

     negative rho (up, down):  0.000E+00 8.797E-04

     total cpu time spent up to now is   188680.1 secs

     total energy              =   -2126.05957308 Ry
     estimated scf accuracy    <       0.00000002 Ry

     total magnetization       =    19.00 Bohr mag/cell
     absolute magnetization    =    19.05 Bohr mag/cell

     iteration # 32     ecut=   100.00 Ry     beta= 0.40
     Davidson diagonalization with overlap
     ethr =  2.21E-12,  avg # of iterations =  1.0

     negative rho (up, down):  0.000E+00 8.797E-04

     total cpu time spent up to now is   193962.1 secs

     total energy              =   -2126.05957308 Ry
     estimated scf accuracy    <          1.8E-09 Ry

     total magnetization       =    19.00 Bohr mag/cell
     absolute magnetization    =    19.05 Bohr mag/cell

     iteration # 33     ecut=   100.00 Ry     beta= 0.40
     Davidson diagonalization with overlap
     ethr =  9.60E-13,  avg # of iterations =  1.0

     negative rho (up, down):  0.000E+00 8.797E-04

     total cpu time spent up to now is   199219.3 secs

     total energy              =   -2126.05957308 Ry
     estimated scf accuracy    <          2.5E-10 Ry

     total magnetization       =    19.00 Bohr mag/cell
     absolute magnetization    =    19.05 Bohr mag/cell

     iteration # 34     ecut=   100.00 Ry     beta= 0.40
     Davidson diagonalization with overlap
     ethr =  1.31E-13,  avg # of iterations =  2.4

     negative rho (up, down):  0.000E+00 8.797E-04

     Magnetic moment per site:
     atom:    1    charge:    7.9681    magn:    0.0015    constr:    0.0000
     atom:    2    charge:   12.9630    magn:    3.6929    constr:    0.0000
     atom:    3    charge:   12.9841    magn:    3.6076    constr:    0.0000
     atom:    4    charge:   12.9766    magn:    3.6482    constr:    0.0000
     atom:    5    charge:   12.9720    magn:    3.6538    constr:    0.0000
     atom:    6    charge:    0.8477    magn:    0.0110    constr:    0.0000
     atom:    7    charge:    0.8338    magn:    0.0117    constr:    0.0000
     atom:    8    charge:    0.8440    magn:    0.0092    constr:    0.0000
     atom:    9    charge:    0.8353    magn:    0.0117    constr:    0.0000
     atom:   10    charge:    4.2747    magn:    0.1151    constr:    0.0000
     atom:   11    charge:    4.2662    magn:    0.1085    constr:    0.0000
     atom:   12    charge:    4.2473    magn:    0.1658    constr:    0.0000
     atom:   13    charge:    4.2621    magn:    0.1103    constr:    0.0000
     atom:   14    charge:    4.2318    magn:    0.1287    constr:    0.0000
     atom:   15    charge:    4.2363    magn:    0.0896    constr:    0.0000
     atom:   16    charge:    4.2267    magn:    0.1210    constr:    0.0000
     atom:   17    charge:    4.2234    magn:    0.1069    constr:    0.0000
     atom:   18    charge:    4.2617    magn:    0.1299    constr:    0.0000
     atom:   19    charge:    4.2541    magn:    0.1469    constr:    0.0000
     atom:   20    charge:    4.2619    magn:    0.1107    constr:    0.0000
     atom:   21    charge:    4.2663    magn:    0.1559    constr:    0.0000
     atom:   22    charge:    4.2643    magn:    0.1234    constr:    0.0000
     atom:   23    charge:    4.2517    magn:    0.1444    constr:    0.0000
     atom:   24    charge:    4.2603    magn:    0.1107    constr:    0.0000
     atom:   25    charge:    4.2524    magn:    0.1487    constr:    0.0000

     total cpu time spent up to now is   205071.2 secs

     End of self-consistent calculation

 ------ SPIN UP ------------


          k = 0.0000 0.0000 0.0000 ( 37701 PWs)   bands (ev):

   -85.6925 -85.6869 -85.5120 -85.3020 -51.8019 -51.7782 -51.7519 -51.6685
   -51.6436 -51.5994 -51.5962 -51.5145 -51.4463 -51.3263 -51.2909 -51.1037
   -44.7523 -16.8360 -16.7424 -16.7209 -16.4890 -16.2707 -16.2355 -16.0036
   -14.1603 -14.0240 -13.9782 -13.9152 -13.8674 -13.7856 -13.7154 -13.6760
   -13.6621 -13.5649 -13.4830 -13.4631  -4.7026  -4.2930  -3.9251  -3.7720
    -2.5917  -2.4884  -2.1195  -2.0981  -1.7874  -1.6407  -1.5488  -1.4839
    -1.3864  -1.3525  -1.2419  -1.1446  -0.5370  -0.4506  -0.2098  -0.0163
     0.0335   0.1078   0.2324   0.3237   0.3645   0.4084   0.4140   0.5474
     0.7962   0.9854   1.0511   1.1259   1.2684   1.3624   1.4070   1.6011
     1.6426   1.7317   1.7393   1.7705   1.8974   1.9636   2.0216   2.1309
     2.1991   2.3435   2.4001   2.4907   2.5603   2.5971   2.7295   2.8448
     3.0021   3.0778   3.1693   3.2448   3.3027   3.3523   3.5025   3.5168
     3.5794   3.6111   3.7674   3.8496   3.8702   3.9671   4.2421   4.4974
     8.4364  10.3488  10.7752  11.1403  11.5410  12.4111  12.6340  12.6832
    12.7527  12.7998

     occupation numbers 
     1.0000   1.0000   1.0000   1.0000   1.0000   1.0000   1.0000   1.0000
     1.0000   1.0000   1.0000   1.0000   1.0000   1.0000   1.0000   1.0000
     1.0000   1.0000   1.0000   1.0000   1.0000   1.0000   1.0000   1.0000
     1.0000   1.0000   1.0000   1.0000   1.0000   1.0000   1.0000   1.0000
     1.0000   1.0000   1.0000   1.0000   1.0000   1.0000   1.0000   1.0000
     1.0000   1.0000   1.0000   1.0000   1.0000   1.0000   1.0000   1.0000
     1.0000   1.0000   1.0000   1.0000   1.0000   1.0000   1.0000   1.0000
     1.0000   1.0000   1.0000   1.0000   1.0000   1.0000   1.0000   1.0000
     1.0000   1.0000   1.0000   1.0000   1.0000   1.0000   1.0000   1.0000
     1.0000   1.0000   1.0000   1.0000   1.0000   1.0000   1.0000   1.0000
     1.0000   1.0000   1.0000   1.0000   1.0000   1.0000   1.0000   1.0000
     1.0000   1.0000   1.0000   1.0000   1.0000   1.0000   1.0000   1.0000
     1.0000   1.0000   1.0000   1.0000   1.0000   1.0000   1.0000   1.0000
     0.0000   0.0000   0.0000   0.0000   0.0000   0.0000   0.0000   0.0000
     0.0000   0.0000

          k = 0.0000 0.0000 0.2415 ( 37675 PWs)   bands (ev):

   -85.6925 -85.6869 -85.5120 -85.3020 -51.8019 -51.7782 -51.7519 -51.6685
   -51.6436 -51.5994 -51.5962 -51.5145 -51.4463 -51.3263 -51.2909 -51.1037
   -44.7523 -16.8362 -16.7461 -16.7213 -16.4752 -16.2630 -16.2259 -16.0013
   -14.1699 -14.0316 -13.9951 -13.9200 -13.8698 -13.7819 -13.7315 -13.6886
   -13.6539 -13.5585 -13.4849 -13.4629  -4.6741  -4.2772  -3.9239  -3.7531
    -2.5777  -2.4658  -2.1324  -2.0715  -1.7874  -1.6425  -1.5514  -1.4731
    -1.3907  -1.3237  -1.2798  -1.1136  -0.5309  -0.4366  -0.2152  -0.0172
     0.0154   0.1228   0.2057   0.2794   0.3734   0.4192   0.4583   0.5412
     0.7784   0.9676   1.0639   1.1351   1.2531   1.3437   1.4313   1.5958
     1.6414   1.6980   1.7404   1.7897   1.8450   1.9631   2.0128   2.1495
     2.1944   2.3327   2.4059   2.4702   2.5456   2.5690   2.7370   2.8486
     2.9701   3.0880   3.1661   3.2464   3.2894   3.3395   3.4780   3.5154
     3.5810   3.6384   3.7536   3.8384   3.8858   3.9668   4.2392   4.4937
     8.5771  10.4202  10.8231  11.1695  11.5755  12.4068  12.4983  12.6373
    12.7024  12.7548

     occupation numbers 
     1.0000   1.0000   1.0000   1.0000   1.0000   1.0000   1.0000   1.0000
     1.0000   1.0000   1.0000   1.0000   1.0000   1.0000   1.0000   1.0000
     1.0000   1.0000   1.0000   1.0000   1.0000   1.0000   1.0000   1.0000
     1.0000   1.0000   1.0000   1.0000   1.0000   1.0000   1.0000   1.0000
     1.0000   1.0000   1.0000   1.0000   1.0000   1.0000   1.0000   1.0000
     1.0000   1.0000   1.0000   1.0000   1.0000   1.0000   1.0000   1.0000
     1.0000   1.0000   1.0000   1.0000   1.0000   1.0000   1.0000   1.0000
     1.0000   1.0000   1.0000   1.0000   1.0000   1.0000   1.0000   1.0000
     1.0000   1.0000   1.0000   1.0000   1.0000   1.0000   1.0000   1.0000
     1.0000   1.0000   1.0000   1.0000   1.0000   1.0000   1.0000   1.0000
     1.0000   1.0000   1.0000   1.0000   1.0000   1.0000   1.0000   1.0000
     1.0000   1.0000   1.0000   1.0000   1.0000   1.0000   1.0000   1.0000
     1.0000   1.0000   1.0000   1.0000   1.0000   1.0000   1.0000   1.0000
     0.0000   0.0000   0.0000   0.0000   0.0000   0.0000   0.0000   0.0000
     0.0000   0.0000

          k = 0.0000 0.0000 0.4830 ( 37730 PWs)   bands (ev):

   -85.6925 -85.6869 -85.5120 -85.3020 -51.8019 -51.7782 -51.7519 -51.6685
   -51.6436 -51.5994 -51.5962 -51.5145 -51.4463 -51.3263 -51.2909 -51.1037
   -44.7523 -16.8373 -16.7547 -16.7213 -16.4402 -16.2428 -16.2012 -15.9967
   -14.1985 -14.0487 -14.0321 -13.9400 -13.8742 -13.7996 -13.7427 -13.7022
   -13.6456 -13.5490 -13.4909 -13.4623  -4.5998  -4.2352  -3.9145  -3.7220
    -2.5528  -2.3944  -2.1191  -2.0464  -1.7914  -1.6539  -1.5652  -1.4439
    -1.3783  -1.3168  -1.2609  -1.0872  -0.5264  -0.3958  -0.2073  -0.0357
    -0.0025   0.1236   0.1779   0.2630   0.3737   0.4459   0.4971   0.5611
     0.7485   0.9473   1.0261   1.1453   1.2316   1.3130   1.4329   1.5491
     1.5936   1.6730   1.7002   1.7741   1.8162   1.9811   2.0018   2.1146
     2.2134   2.3077   2.3642   2.4096   2.4637   2.5790   2.7740   2.8439
     2.9232   3.0980   3.1693   3.2348   3.2908   3.3185   3.4746   3.5037
     3.5720   3.6723   3.7422   3.8264   3.9048   3.9609   4.2345   4.4847
     8.9550  10.6047  10.9182  11.2550  11.6660  12.1785  12.3560  12.4770
    12.6368  12.7254

     occupation numbers 
     1.0000   1.0000   1.0000   1.0000   1.0000   1.0000   1.0000   1.0000
     1.0000   1.0000   1.0000   1.0000   1.0000   1.0000   1.0000   1.0000
     1.0000   1.0000   1.0000   1.0000   1.0000   1.0000   1.0000   1.0000
     1.0000   1.0000   1.0000   1.0000   1.0000   1.0000   1.0000   1.0000
     1.0000   1.0000   1.0000   1.0000   1.0000   1.0000   1.0000   1.0000
     1.0000   1.0000   1.0000   1.0000   1.0000   1.0000   1.0000   1.0000
     1.0000   1.0000   1.0000   1.0000   1.0000   1.0000   1.0000   1.0000
     1.0000   1.0000   1.0000   1.0000   1.0000   1.0000   1.0000   1.0000
     1.0000   1.0000   1.0000   1.0000   1.0000   1.0000   1.0000   1.0000
     1.0000   1.0000   1.0000   1.0000   1.0000   1.0000   1.0000   1.0000
     1.0000   1.0000   1.0000   1.0000   1.0000   1.0000   1.0000   1.0000
     1.0000   1.0000   1.0000   1.0000   1.0000   1.0000   1.0000   1.0000
     1.0000   1.0000   1.0000   1.0000   1.0000   1.0000   1.0000   1.0000
     0.0000   0.0000   0.0000   0.0000   0.0000   0.0000   0.0000   0.0000
     0.0000   0.0000

          k = 0.0000 0.0000 0.7246 ( 37724 PWs)   bands (ev):

   -85.6925 -85.6869 -85.5120 -85.3020 -51.8019 -51.7782 -51.7519 -51.6685
   -51.6436 -51.5994 -51.5962 -51.5145 -51.4463 -51.3263 -51.2909 -51.1037
   -44.7523 -16.8397 -16.7624 -16.7207 -16.3995 -16.2183 -16.1720 -15.9942
   -14.2354 -14.0908 -14.0404 -13.9725 -13.8819 -13.8432 -13.7317 -13.7002
   -13.6407 -13.5455 -13.4996 -13.4611  -4.5110  -4.1831  -3.8985  -3.7114
    -2.5325  -2.3046  -2.0817  -2.0257  -1.8043  -1.6713  -1.5912  -1.4291
    -1.3462  -1.2857  -1.2058  -1.0916  -0.5343  -0.3446  -0.1497  -0.0763
     0.0167   0.1226   0.1808   0.2877   0.4002   0.4795   0.5242   0.5722
     0.7376   0.9040   0.9506   1.1110   1.1874   1.2575   1.3666   1.4290
     1.5124   1.6050   1.7361   1.8079   1.8292   1.9337   1.9463   2.1004
     2.1877   2.2527   2.2682   2.3814   2.4503   2.6177   2.7938   2.8308
     2.9215   3.1037   3.1274   3.2327   3.3204   3.3607   3.4676   3.5125
     3.5636   3.6622   3.7693   3.8183   3.9119   3.9530   4.2341   4.4733
     9.4755  10.7845  10.9812  11.3558  11.6179  12.0592  12.2094  12.3146
    12.5022  12.6608

     occupation numbers 
     1.0000   1.0000   1.0000   1.0000   1.0000   1.0000   1.0000   1.0000
     1.0000   1.0000   1.0000   1.0000   1.0000   1.0000   1.0000   1.0000
     1.0000   1.0000   1.0000   1.0000   1.0000   1.0000   1.0000   1.0000
     1.0000   1.0000   1.0000   1.0000   1.0000   1.0000   1.0000   1.0000
     1.0000   1.0000   1.0000   1.0000   1.0000   1.0000   1.0000   1.0000
     1.0000   1.0000   1.0000   1.0000   1.0000   1.0000   1.0000   1.0000
     1.0000   1.0000   1.0000   1.0000   1.0000   1.0000   1.0000   1.0000
     1.0000   1.0000   1.0000   1.0000   1.0000   1.0000   1.0000   1.0000
     1.0000   1.0000   1.0000   1.0000   1.0000   1.0000   1.0000   1.0000
     1.0000   1.0000   1.0000   1.0000   1.0000   1.0000   1.0000   1.0000
     1.0000   1.0000   1.0000   1.0000   1.0000   1.0000   1.0000   1.0000
     1.0000   1.0000   1.0000   1.0000   1.0000   1.0000   1.0000   1.0000
     1.0000   1.0000   1.0000   1.0000   1.0000   1.0000   1.0000   1.0000
     0.0000   0.0000   0.0000   0.0000   0.0000   0.0000   0.0000   0.0000
     0.0000   0.0000

          k = 0.0000 0.0000 0.9661 ( 37764 PWs)   bands (ev):

   -85.6925 -85.6869 -85.5120 -85.3020 -51.8019 -51.7782 -51.7519 -51.6685
   -51.6436 -51.5994 -51.5962 -51.5145 -51.4463 -51.3263 -51.2909 -51.1037
   -44.7523 -16.8420 -16.7661 -16.7201 -16.3720 -16.2011 -16.1518 -15.9952
   -14.2605 -14.1219 -14.0333 -14.0024 -13.8998 -13.8605 -13.7303 -13.6853
   -13.6389 -13.5480 -13.5058 -13.4601  -4.4498  -4.1457  -3.8852  -3.7195
    -2.5195  -2.2500  -2.0642  -1.9922  -1.8154  -1.6844  -1.6173  -1.4075
    -1.3188  -1.2497  -1.1952  -1.0947  -0.5407  -0.3038  -0.1191  -0.0758
     0.0549   0.1211   0.2515   0.3705   0.3975   0.4685   0.5237   0.6071
     0.7404   0.8001   0.8532   1.0671   1.1142   1.1908   1.3463   1.3973
     1.4638   1.5381   1.7385   1.7649   1.8631   1.9042   1.9214   2.0931
     2.1337   2.2156   2.2848   2.3491   2.4541   2.6548   2.7700   2.8275
     2.9422   3.0813   3.1243   3.2548   3.3386   3.3999   3.4578   3.5106
     3.5675   3.6595   3.7767   3.8340   3.9043   3.9485   4.2380   4.4632
    10.0322  10.6014  11.0971  11.3147  11.5724  12.0592  12.1794  12.3198
    12.4186  12.5088

     occupation numbers 
     1.0000   1.0000   1.0000   1.0000   1.0000   1.0000   1.0000   1.0000
     1.0000   1.0000   1.0000   1.0000   1.0000   1.0000   1.0000   1.0000
     1.0000   1.0000   1.0000   1.0000   1.0000   1.0000   1.0000   1.0000
     1.0000   1.0000   1.0000   1.0000   1.0000   1.0000   1.0000   1.0000
     1.0000   1.0000   1.0000   1.0000   1.0000   1.0000   1.0000   1.0000
     1.0000   1.0000   1.0000   1.0000   1.0000   1.0000   1.0000   1.0000
     1.0000   1.0000   1.0000   1.0000   1.0000   1.0000   1.0000   1.0000
     1.0000   1.0000   1.0000   1.0000   1.0000   1.0000   1.0000   1.0000
     1.0000   1.0000   1.0000   1.0000   1.0000   1.0000   1.0000   1.0000
     1.0000   1.0000   1.0000   1.0000   1.0000   1.0000   1.0000   1.0000
     1.0000   1.0000   1.0000   1.0000   1.0000   1.0000   1.0000   1.0000
     1.0000   1.0000   1.0000   1.0000   1.0000   1.0000   1.0000   1.0000
     1.0000   1.0000   1.0000   1.0000   1.0000   1.0000   1.0000   1.0000
     0.0000   0.0000   0.0000   0.0000   0.0000   0.0000   0.0000   0.0000
     0.0000   0.0000

          k = 0.0000 0.2470 0.0000 ( 37673 PWs)   bands (ev):

   -85.6925 -85.6869 -85.5120 -85.3020 -51.8019 -51.7782 -51.7519 -51.6685
   -51.6436 -51.5994 -51.5962 -51.5145 -51.4463 -51.3263 -51.2909 -51.1037
   -44.7523 -16.8415 -16.7479 -16.7232 -16.4699 -16.2630 -16.2251 -16.0148
   -14.1714 -14.0266 -13.9791 -13.9331 -13.8765 -13.7877 -13.7155 -13.6762
   -13.6484 -13.5656 -13.4796 -13.4597  -4.6660  -4.2623  -3.9381  -3.7723
    -2.5617  -2.4483  -2.1255  -2.0792  -1.7873  -1.6578  -1.5365  -1.4813
    -1.4011  -1.3197  -1.2335  -1.1361  -0.5501  -0.4589  -0.2375  -0.0787
     0.0260   0.1333   0.1492   0.2641   0.3570   0.4164   0.5316   0.5913
     0.7960   0.9470   1.0382   1.1440   1.2805   1.3296   1.3914   1.5292
     1.5956   1.6700   1.7360   1.7885   1.8737   1.9558   2.0382   2.1440
     2.2419   2.3323   2.3965   2.4582   2.5415   2.6068   2.7285   2.8388
     2.9826   3.1062   3.1375   3.2006   3.2997   3.3439   3.4844   3.5274
     3.5811   3.6221   3.7262   3.8184   3.9394   4.0568   4.3105   4.5038
     8.5914  10.4199  10.8655  11.0643  11.5570  12.3216  12.5365  12.6384
    12.7239  12.8278

     occupation numbers 
     1.0000   1.0000   1.0000   1.0000   1.0000   1.0000   1.0000   1.0000
     1.0000   1.0000   1.0000   1.0000   1.0000   1.0000   1.0000   1.0000
     1.0000   1.0000   1.0000   1.0000   1.0000   1.0000   1.0000   1.0000
     1.0000   1.0000   1.0000   1.0000   1.0000   1.0000   1.0000   1.0000
     1.0000   1.0000   1.0000   1.0000   1.0000   1.0000   1.0000   1.0000
     1.0000   1.0000   1.0000   1.0000   1.0000   1.0000   1.0000   1.0000
     1.0000   1.0000   1.0000   1.0000   1.0000   1.0000   1.0000   1.0000
     1.0000   1.0000   1.0000   1.0000   1.0000   1.0000   1.0000   1.0000
     1.0000   1.0000   1.0000   1.0000   1.0000   1.0000   1.0000   1.0000
     1.0000   1.0000   1.0000   1.0000   1.0000   1.0000   1.0000   1.0000
     1.0000   1.0000   1.0000   1.0000   1.0000   1.0000   1.0000   1.0000
     1.0000   1.0000   1.0000   1.0000   1.0000   1.0000   1.0000   1.0000
     1.0000   1.0000   1.0000   1.0000   1.0000   1.0000   1.0000   1.0000
     0.0000   0.0000   0.0000   0.0000   0.0000   0.0000   0.0000   0.0000
     0.0000   0.0000

          k = 0.0000 0.2470 0.2415 ( 37679 PWs)   bands (ev):

   -85.6925 -85.6869 -85.5120 -85.3020 -51.8019 -51.7782 -51.7519 -51.6685
   -51.6436 -51.5994 -51.5962 -51.5145 -51.4463 -51.3263 -51.2909 -51.1037
   -44.7523 -16.8379 -16.7552 -16.7225 -16.4601 -16.2518 -16.2210 -16.0066
   -14.1880 -14.0285 -13.9960 -13.9363 -13.8796 -13.7897 -13.7244 -13.6825
   -13.6468 -13.5623 -13.4804 -13.4597  -4.6437  -4.2487  -3.9288  -3.7463
    -2.5484  -2.4280  -2.1491  -2.0481  -1.7707  -1.6374  -1.5548  -1.4647
    -1.3893  -1.3508  -1.2723  -1.0864  -0.5466  -0.4421  -0.2365  -0.0715
     0.0378   0.1124   0.1934   0.2770   0.3100   0.3979   0.5255   0.5735
     0.7637   0.9357   0.9684   1.1585   1.2520   1.3403   1.3767   1.5614
     1.6123   1.7037   1.7467   1.7915   1.8735   1.9666   2.0386   2.1405
     2.2301   2.3315   2.3817   2.4481   2.4902   2.5891   2.7322   2.8175
     2.9682   3.0869   3.1223   3.2074   3.2846   3.3352   3.4759   3.5284
     3.5892   3.6323   3.7161   3.8583   3.9202   4.0676   4.3101   4.4987
     8.7216  10.4981  10.9134  11.0901  11.6016  12.3048  12.4730  12.5631
    12.7363  12.8096

     occupation numbers 
     1.0000   1.0000   1.0000   1.0000   1.0000   1.0000   1.0000   1.0000
     1.0000   1.0000   1.0000   1.0000   1.0000   1.0000   1.0000   1.0000
     1.0000   1.0000   1.0000   1.0000   1.0000   1.0000   1.0000   1.0000
     1.0000   1.0000   1.0000   1.0000   1.0000   1.0000   1.0000   1.0000
     1.0000   1.0000   1.0000   1.0000   1.0000   1.0000   1.0000   1.0000
     1.0000   1.0000   1.0000   1.0000   1.0000   1.0000   1.0000   1.0000
     1.0000   1.0000   1.0000   1.0000   1.0000   1.0000   1.0000   1.0000
     1.0000   1.0000   1.0000   1.0000   1.0000   1.0000   1.0000   1.0000
     1.0000   1.0000   1.0000   1.0000   1.0000   1.0000   1.0000   1.0000
     1.0000   1.0000   1.0000   1.0000   1.0000   1.0000   1.0000   1.0000
     1.0000   1.0000   1.0000   1.0000   1.0000   1.0000   1.0000   1.0000
     1.0000   1.0000   1.0000   1.0000   1.0000   1.0000   1.0000   1.0000
     1.0000   1.0000   1.0000   1.0000   1.0000   1.0000   1.0000   1.0000
     0.0000   0.0000   0.0000   0.0000   0.0000   0.0000   0.0000   0.0000
     0.0000   0.0000

          k = 0.0000 0.2470 0.4830 ( 37698 PWs)   bands (ev):

   -85.6925 -85.6869 -85.5120 -85.3020 -51.8019 -51.7782 -51.7519 -51.6685
   -51.6436 -51.5994 -51.5962 -51.5145 -51.4463 -51.3263 -51.2909 -51.1037
   -44.7523 -16.8353 -16.7658 -16.7224 -16.4295 -16.2292 -16.2011 -15.9956
   -14.2172 -14.0461 -14.0363 -13.9466 -13.8988 -13.7912 -13.7407 -13.6974
   -13.6390 -13.5544 -13.4861 -13.4589  -4.5744  -4.2088  -3.9131  -3.7012
    -2.5295  -2.3707  -2.1285  -2.0249  -1.7720  -1.6299  -1.5538  -1.4528
    -1.3925  -1.3181  -1.2885  -1.0519  -0.5552  -0.4056  -0.2114  -0.0636
     0.0262   0.0976   0.1827   0.2655   0.3122   0.4175   0.5240   0.5971
     0.7089   0.8786   0.9492   1.1479   1.2360   1.3233   1.3596   1.5398
     1.6111   1.6426   1.7405   1.8027   1.8598   1.9800   2.0293   2.1399
     2.1824   2.2988   2.3674   2.3895   2.4636   2.5232   2.7717   2.7861
     2.9472   3.0316   3.1125   3.2183   3.2635   3.3546   3.4754   3.5224
     3.5907   3.6372   3.7400   3.8736   3.9209   4.0704   4.2938   4.4957
     9.0798  10.6873  11.0011  11.1771  11.7010  12.2112  12.3029  12.4240
    12.5820  12.7492

     occupation numbers 
     1.0000   1.0000   1.0000   1.0000   1.0000   1.0000   1.0000   1.0000
     1.0000   1.0000   1.0000   1.0000   1.0000   1.0000   1.0000   1.0000
     1.0000   1.0000   1.0000   1.0000   1.0000   1.0000   1.0000   1.0000
     1.0000   1.0000   1.0000   1.0000   1.0000   1.0000   1.0000   1.0000
     1.0000   1.0000   1.0000   1.0000   1.0000   1.0000   1.0000   1.0000
     1.0000   1.0000   1.0000   1.0000   1.0000   1.0000   1.0000   1.0000
     1.0000   1.0000   1.0000   1.0000   1.0000   1.0000   1.0000   1.0000
     1.0000   1.0000   1.0000   1.0000   1.0000   1.0000   1.0000   1.0000
     1.0000   1.0000   1.0000   1.0000   1.0000   1.0000   1.0000   1.0000
     1.0000   1.0000   1.0000   1.0000   1.0000   1.0000   1.0000   1.0000
     1.0000   1.0000   1.0000   1.0000   1.0000   1.0000   1.0000   1.0000
     1.0000   1.0000   1.0000   1.0000   1.0000   1.0000   1.0000   1.0000
     1.0000   1.0000   1.0000   1.0000   1.0000   1.0000   1.0000   1.0000
     0.0000   0.0000   0.0000   0.0000   0.0000   0.0000   0.0000   0.0000
     0.0000   0.0000

          k = 0.0000 0.2470 0.7246 ( 37707 PWs)   bands (ev):

   -85.6925 -85.6869 -85.5120 -85.3020 -51.8019 -51.7782 -51.7519 -51.6685
   -51.6436 -51.5994 -51.5962 -51.5145 -51.4463 -51.3263 -51.2909 -51.1037
   -44.7523 -16.8362 -16.7734 -16.7221 -16.3913 -16.2058 -16.1726 -15.9889
   -14.2497 -14.0876 -14.0587 -13.9672 -13.9236 -13.8139 -13.7347 -13.6993
   -13.6336 -13.5503 -13.4956 -13.4574  -4.4866  -4.1574  -3.8973  -3.6755
    -2.5183  -2.2937  -2.0789  -2.0069  -1.7887  -1.6557  -1.5627  -1.4459
    -1.3651  -1.2710  -1.2393  -1.0609  -0.5694  -0.3717  -0.1424  -0.0751
     0.0301   0.0954   0.1569   0.2763   0.3608   0.4517   0.5460   0.6505
     0.6750   0.8279   0.9067   1.0932   1.2204   1.2510   1.3299   1.4339
     1.5254   1.6173   1.6522   1.8329   1.8665   1.9346   2.0019   2.1117
     2.1682   2.2269   2.3214   2.3755   2.4309   2.5356   2.7619   2.8385
     2.9295   3.0061   3.0804   3.2259   3.2931   3.3641   3.4768   3.5267
     3.5945   3.6383   3.7808   3.8511   3.9361   4.0743   4.2782   4.4915
     9.5782  10.9041  11.0158  11.2912  11.6718  12.0847  12.2054  12.3057
    12.4643  12.6650

     occupation numbers 
     1.0000   1.0000   1.0000   1.0000   1.0000   1.0000   1.0000   1.0000
     1.0000   1.0000   1.0000   1.0000   1.0000   1.0000   1.0000   1.0000
     1.0000   1.0000   1.0000   1.0000   1.0000   1.0000   1.0000   1.0000
     1.0000   1.0000   1.0000   1.0000   1.0000   1.0000   1.0000   1.0000
     1.0000   1.0000   1.0000   1.0000   1.0000   1.0000   1.0000   1.0000
     1.0000   1.0000   1.0000   1.0000   1.0000   1.0000   1.0000   1.0000
     1.0000   1.0000   1.0000   1.0000   1.0000   1.0000   1.0000   1.0000
     1.0000   1.0000   1.0000   1.0000   1.0000   1.0000   1.0000   1.0000
     1.0000   1.0000   1.0000   1.0000   1.0000   1.0000   1.0000   1.0000
     1.0000   1.0000   1.0000   1.0000   1.0000   1.0000   1.0000   1.0000
     1.0000   1.0000   1.0000   1.0000   1.0000   1.0000   1.0000   1.0000
     1.0000   1.0000   1.0000   1.0000   1.0000   1.0000   1.0000   1.0000
     1.0000   1.0000   1.0000   1.0000   1.0000   1.0000   1.0000   1.0000
     0.0000   0.0000   0.0000   0.0000   0.0000   0.0000   0.0000   0.0000
     0.0000   0.0000

          k = 0.0000 0.2470 0.9661 ( 37706 PWs)   bands (ev):

   -85.6925 -85.6869 -85.5120 -85.3020 -51.8019 -51.7782 -51.7519 -51.6685
   -51.6436 -51.5994 -51.5962 -51.5145 -51.4463 -51.3263 -51.2909 -51.1037
   -44.7523 -16.8401 -16.7748 -16.7219 -16.3635 -16.1893 -16.1512 -15.9908
   -14.2702 -14.1209 -14.0610 -13.9889 -13.9402 -13.8351 -13.7326 -13.6848
   -13.6316 -13.5505 -13.5033 -13.4563  -4.4185  -4.1174  -3.8866  -3.6889
    -2.5043  -2.2423  -2.0509  -1.9830  -1.8028  -1.6802  -1.5985  -1.4226
    -1.3276  -1.2324  -1.1886  -1.0931  -0.5810  -0.3434  -0.1071  -0.0778
     0.0386   0.0831   0.2023   0.3488   0.3823   0.4951   0.5484   0.6566
     0.7433   0.7629   0.8288   1.0411   1.1146   1.2038   1.3231   1.3568
     1.4827   1.5366   1.6849   1.7512   1.8582   1.9323   1.9537   2.0918
     2.1355   2.1913   2.3022   2.3610   2.4285   2.6016   2.7632   2.8449
     2.9404   2.9754   3.0903   3.2351   3.2997   3.3812   3.4790   3.5450
     3.5859   3.6582   3.7823   3.8457   3.9371   4.0694   4.2837   4.4819
    10.1105  10.7219  11.1097  11.3584  11.5799  12.0368  12.1452  12.3685
    12.4351  12.5456

     occupation numbers 
     1.0000   1.0000   1.0000   1.0000   1.0000   1.0000   1.0000   1.0000
     1.0000   1.0000   1.0000   1.0000   1.0000   1.0000   1.0000   1.0000
     1.0000   1.0000   1.0000   1.0000   1.0000   1.0000   1.0000   1.0000
     1.0000   1.0000   1.0000   1.0000   1.0000   1.0000   1.0000   1.0000
     1.0000   1.0000   1.0000   1.0000   1.0000   1.0000   1.0000   1.0000
     1.0000   1.0000   1.0000   1.0000   1.0000   1.0000   1.0000   1.0000
     1.0000   1.0000   1.0000   1.0000   1.0000   1.0000   1.0000   1.0000
     1.0000   1.0000   1.0000   1.0000   1.0000   1.0000   1.0000   1.0000
     1.0000   1.0000   1.0000   1.0000   1.0000   1.0000   1.0000   1.0000
     1.0000   1.0000   1.0000   1.0000   1.0000   1.0000   1.0000   1.0000
     1.0000   1.0000   1.0000   1.0000   1.0000   1.0000   1.0000   1.0000
     1.0000   1.0000   1.0000   1.0000   1.0000   1.0000   1.0000   1.0000
     1.0000   1.0000   1.0000   1.0000   1.0000   1.0000   1.0000   1.0000
     0.0000   0.0000   0.0000   0.0000   0.0000   0.0000   0.0000   0.0000
     0.0000   0.0000

          k = 0.0000 0.4940 0.0000 ( 37685 PWs)   bands (ev):

   -85.6925 -85.6869 -85.5120 -85.3020 -51.8019 -51.7782 -51.7519 -51.6685
   -51.6436 -51.5994 -51.5962 -51.5145 -51.4464 -51.3263 -51.2909 -51.1037
   -44.7523 -16.8551 -16.7584 -16.7247 -16.4285 -16.2475 -16.1968 -16.0455
   -14.1941 -14.0388 -13.9884 -13.9637 -13.8853 -13.7974 -13.7122 -13.6764
   -13.6258 -13.5674 -13.4713 -13.4529  -4.5796  -4.1919  -3.9659  -3.7822
    -2.4798  -2.3396  -2.1267  -2.0440  -1.7865  -1.6992  -1.5212  -1.4747
    -1.3984  -1.2672  -1.2132  -1.1273  -0.6069  -0.4774  -0.3210  -0.1733
[...]
     atom    9 type  4   force =    -0.04744750    0.00545835   -0.00031479
     atom   10 type  3   force =    -0.00616229    0.00152448    0.00205385
     atom   11 type  3   force =    -0.00331634    0.00271431   -0.00379689
     atom   12 type  3   force =     0.00430293    0.00617944    0.00327048
     atom   13 type  3   force =     0.00267914   -0.00277433    0.00233653
     atom   14 type  3   force =     0.06024039   -0.00526078   -0.01036852
     atom   15 type  3   force =    -0.05396600    0.01485030    0.00399205
     atom   16 type  3   force =    -0.06336826    0.00424731    0.00829399
     atom   17 type  3   force =     0.04864790   -0.01028860   -0.00049962
     atom   18 type  3   force =    -0.00415619   -0.00613486    0.00435867
     atom   19 type  3   force =     0.00806388    0.00141869    0.00315845
     atom   20 type  3   force =    -0.00297015    0.00278345   -0.00672927
     atom   21 type  3   force =     0.00295302    0.00085279    0.00213597
     atom   22 type  3   force =     0.00517839    0.00709950   -0.00493376
     atom   23 type  3   force =    -0.00896335   -0.00416171   -0.00612712
     atom   24 type  3   force =     0.00229554   -0.00139528    0.00513956
     atom   25 type  3   force =     0.00005991   -0.00096867   -0.00195309
     The non-local contrib.  to forces
     atom    1 type  2   force =    -0.06736529   -0.00529739   -0.01839845
     atom    2 type  1   force =     0.06658342   -0.13443960   -0.03595502
     atom    3 type  1   force =    -0.01304515   -0.12477687    0.15860042
     atom    4 type  1   force =    -0.04705828    0.11450273    0.14399551
     atom    5 type  1   force =     0.01534025    0.15052929   -0.07249004
     atom    6 type  4   force =    -0.08042269    0.07903686    0.02280147
     atom    7 type  4   force =     0.02303445    0.01377820   -0.07138412
     atom    8 type  4   force =     0.03655814   -0.06808972   -0.04405883
     atom    9 type  4   force =    -0.03432337   -0.00131113    0.06159666
     atom   10 type  3   force =    -0.38732795   -0.11822899   -1.21171156
     atom   11 type  3   force =    -0.02364955    0.18313946   -1.46278147
     atom   12 type  3   force =     0.48898575    0.12788421    1.17380378
     atom   13 type  3   force =    -0.06361572   -0.21591825    1.44621068
     atom   14 type  3   force =     1.35275159   -0.15610962   -0.54397074
     atom   15 type  3   force =    -1.25221068    0.65299385   -0.08562178
     atom   16 type  3   force =    -1.40821145    0.11225273    0.56304412
     atom   17 type  3   force =     1.20421764   -0.67150241    0.21743667
     atom   18 type  3   force =    -0.44642413   -1.34326258    0.66207777
     atom   19 type  3   force =     0.55979771    0.73751486    0.95543783
     atom   20 type  3   force =    -0.06594497   -1.45966431   -0.98191783
     atom   21 type  3   force =    -0.12433348    0.99934805   -0.65698919
     atom   22 type  3   force =     0.39866219    1.26053513   -0.72041330
     atom   23 type  3   force =    -0.60862580   -0.67375766   -0.99676407
     atom   24 type  3   force =     0.10017298    1.46907038    1.03683086
     atom   25 type  3   force =     0.30498759   -0.96016715    0.66932604
     The ionic contribution  to forces
     atom    1 type  2   force =    -1.49560339    3.41272733    2.26948339
     atom    2 type  1   force =    13.88276357   -0.22236550   -0.40333709
     atom    3 type  1   force =     2.95831244   -6.45036651   -3.20397198
     atom    4 type  1   force =   -11.11522649   -3.77962820    2.27204305
     atom    5 type  1   force =    -6.42289352    8.27628554    1.34519132
     atom    6 type  4   force =    -1.02938144    1.50174542   -0.79821640
     atom    7 type  4   force =     4.79491842   -0.06310042    0.91524848
     atom    8 type  4   force =     2.13318348   -2.74375403    0.67424957
     atom    9 type  4   force =    -4.96083954    0.78209388   -1.20188805
     atom   10 type  3   force =    -0.75810959    1.73564169   -0.80854682
     atom   11 type  3   force =     8.40798133   -2.02678340    2.35632977
     atom   12 type  3   force =     1.99211189   -6.79146429   -1.48889361
     atom   13 type  3   force =    -8.47375684    3.30366391   -2.31849919
     atom   14 type  3   force =     1.67159921    0.46469345    6.40504690
     atom   15 type  3   force =    -0.34909690   -3.38323805    2.18492669
     atom   16 type  3   force =    -1.05588167   -0.54120517   -6.82421557
     atom   17 type  3   force =     0.23275214    5.97094180   -3.48019123
     atom   18 type  3   force =    -1.03408583    7.72857219    3.37692822
     atom   19 type  3   force =     5.26723641   -0.59108287   -4.13199854
     atom   20 type  3   force =     3.16127237    2.34501249    8.34827992
     atom   21 type  3   force =    -9.87428936   -0.71514548    0.53700025
     atom   22 type  3   force =     2.13679281   -5.87678700   -1.05520576
     atom   23 type  3   force =    -4.12245679    0.84026099    4.54807546
     atom   24 type  3   force =    -4.04940775   -4.45212929   -8.44193986
     atom   25 type  3   force =     8.10210505    1.27541154   -1.07589891
     The local contribution  to forces
     atom    1 type  2   force =     1.56435092   -3.41148265   -2.24076117
     atom    2 type  1   force =   -13.94854266    0.35586522    0.44720047
     atom    3 type  1   force =    -2.95114215    6.57351463    3.04409778
     atom    4 type  1   force =    11.16024923    3.66635486   -2.42705494
     atom    5 type  1   force =     6.41683062   -8.43141609   -1.27304133
     atom    6 type  4   force =     1.07632627   -1.55768676    0.78263647
     atom    7 type  4   force =    -4.76784837    0.04723600   -0.85122375
     atom    8 type  4   force =    -2.13308622    2.78305507   -0.64040418
     atom    9 type  4   force =     4.94335380   -0.77479443    1.14381105
     atom   10 type  3   force =     1.13636104   -1.61686203    2.01179598
     atom   11 type  3   force =    -8.38862025    1.84819506   -0.91015669
     atom   12 type  3   force =    -2.47271511    6.67084695    0.32875942
     atom   13 type  3   force =     8.54023820   -3.09275906    0.88727564
     atom   14 type  3   force =    -2.95160421   -0.31536985   -5.87703731
     atom   15 type  3   force =     1.53596349    2.75148984   -2.09658633
     atom   16 type  3   force =     2.38766563    0.43428631    6.27525197
     atom   17 type  3   force =    -1.37723809   -5.31643038    3.26469818
     atom   18 type  3   force =     1.47281344   -6.40392992   -4.02902401
     atom   19 type  3   force =    -5.81391369   -0.13884173    3.18849211
     atom   20 type  3   force =    -3.09913247   -0.89526317   -7.38226824
     atom   21 type  3   force =    10.00062894   -0.27467643    0.11617637
     atom   22 type  3   force =    -2.52721037    4.63505901    1.76449652
     atom   23 type  3   force =     4.71663909   -0.17624596   -3.56658147
     atom   24 type  3   force =     3.95275041    2.99439923    7.42002184
     atom   25 type  3   force =    -8.40431591   -0.32453061    0.41074134
     The core correction contribution to forces
     atom    1 type  2   force =     0.00000000    0.00000000    0.00000000
     atom    2 type  1   force =    -0.00252091    0.00167014    0.00029541
     atom    3 type  1   force =     0.00093869    0.00136966   -0.00127635
     atom    4 type  1   force =     0.00255360   -0.00075967   -0.00087959
     atom    5 type  1   force =    -0.00145517    0.00045508   -0.00070104
     atom    6 type  4   force =     0.00838793   -0.00553852   -0.00110803
     atom    7 type  4   force =    -0.00364460   -0.00097235    0.00501778
     atom    8 type  4   force =    -0.00515743    0.00540032    0.00338381
     atom    9 type  4   force =     0.00435810   -0.00052935   -0.00383492
     atom   10 type  3   force =     0.00291708    0.00097352    0.01051652
     atom   11 type  3   force =     0.00096977   -0.00183681    0.01281177
     atom   12 type  3   force =    -0.00407693   -0.00109183   -0.01039940
     atom   13 type  3   force =    -0.00019282    0.00224106   -0.01264670
     atom   14 type  3   force =    -0.01251030    0.00152546    0.00559191
     atom   15 type  3   force =     0.01138117   -0.00639504    0.00127344
     atom   16 type  3   force =     0.01305629   -0.00108677   -0.00578645
     atom   17 type  3   force =    -0.01107566    0.00670432   -0.00244487
     atom   18 type  3   force =     0.00354282    0.01248508   -0.00562366
     atom   19 type  3   force =    -0.00505822   -0.00617214   -0.00877287
     atom   20 type  3   force =     0.00084063    0.01269599    0.00918004
     atom   21 type  3   force =     0.00094166   -0.00867513    0.00594553
     atom   22 type  3   force =    -0.00306395   -0.01170690    0.00618848
     atom   23 type  3   force =     0.00547661    0.00558363    0.00914107
     atom   24 type  3   force =    -0.00121698   -0.01273565   -0.00977281
     atom   25 type  3   force =    -0.00271911    0.00831840   -0.00612152
     The Hubbard contrib.    to forces
     atom    1 type  2   force =     0.00000000    0.00000000    0.00000000
     atom    2 type  1   force =     0.00000000    0.00000000    0.00000000
     atom    3 type  1   force =     0.00000000    0.00000000    0.00000000
     atom    4 type  1   force =     0.00000000    0.00000000    0.00000000
     atom    5 type  1   force =     0.00000000    0.00000000    0.00000000
     atom    6 type  4   force =     0.00000000    0.00000000    0.00000000
     atom    7 type  4   force =     0.00000000    0.00000000    0.00000000
     atom    8 type  4   force =     0.00000000    0.00000000    0.00000000
     atom    9 type  4   force =     0.00000000    0.00000000    0.00000000
     atom   10 type  3   force =     0.00000000    0.00000000    0.00000000
     atom   11 type  3   force =     0.00000000    0.00000000    0.00000000
     atom   12 type  3   force =     0.00000000    0.00000000    0.00000000
     atom   13 type  3   force =     0.00000000    0.00000000    0.00000000
     atom   14 type  3   force =     0.00000000    0.00000000    0.00000000
     atom   15 type  3   force =     0.00000000    0.00000000    0.00000000
     atom   16 type  3   force =     0.00000000    0.00000000    0.00000000
     atom   17 type  3   force =     0.00000000    0.00000000    0.00000000
     atom   18 type  3   force =     0.00000000    0.00000000    0.00000000
     atom   19 type  3   force =     0.00000000    0.00000000    0.00000000
     atom   20 type  3   force =     0.00000000    0.00000000    0.00000000
     atom   21 type  3   force =     0.00000000    0.00000000    0.00000000
     atom   22 type  3   force =     0.00000000    0.00000000    0.00000000
     atom   23 type  3   force =     0.00000000    0.00000000    0.00000000
     atom   24 type  3   force =     0.00000000    0.00000000    0.00000000
     atom   25 type  3   force =     0.00000000    0.00000000    0.00000000
     The SCF correction term to forces
     atom    1 type  2   force =    -0.00000635   -0.00000147   -0.00000059
     atom    2 type  1   force =     0.00000317   -0.00000064   -0.00000021
     atom    3 type  1   force =    -0.00000053   -0.00000167    0.00000035
     atom    4 type  1   force =     0.00000093    0.00000311    0.00000239
     atom    5 type  1   force =    -0.00000213    0.00000261   -0.00000055
     atom    6 type  4   force =    -0.00000330    0.00000018    0.00000007
     atom    7 type  4   force =     0.00000267    0.00000009    0.00000006
     atom    8 type  4   force =    -0.00000278    0.00000200   -0.00000055
     atom    9 type  4   force =     0.00000354   -0.00000054    0.00000048
     atom   10 type  3   force =    -0.00000284    0.00000038   -0.00000026
     atom   11 type  3   force =     0.00000240    0.00000009   -0.00000027
     atom   12 type  3   force =    -0.00000263    0.00000450    0.00000030
     atom   13 type  3   force =     0.00000637   -0.00000192   -0.00000389
     atom   14 type  3   force =     0.00000414   -0.00000014    0.00000073
     atom   15 type  3   force =    -0.00000304   -0.00000021    0.00000004
     atom   16 type  3   force =     0.00000298    0.00000030   -0.00000007
     atom   17 type  3   force =    -0.00000808   -0.00000184    0.00000162
     atom   18 type  3   force =    -0.00000246    0.00000046    0.00000036
     atom   19 type  3   force =     0.00000173    0.00000066   -0.00000008
     atom   20 type  3   force =    -0.00000566    0.00000253   -0.00000316
     atom   21 type  3   force =     0.00000531    0.00000185    0.00000302
     atom   22 type  3   force =    -0.00000225   -0.00000065    0.00000030
     atom   23 type  3   force =     0.00000359   -0.00000262    0.00000189
     atom   24 type  3   force =    -0.00000308    0.00000014   -0.00000048
     atom   25 type  3   force =     0.00000233   -0.00000077   -0.00000003

     Total force =     0.147032     Total SCF correction =     0.000022


     Computing stress (Cartesian axis) and pressure


     negative rho (up, down):  0.000E+00 8.797E-04
          total   stress  (Ry/bohr**3)                   (kbar)     P=      -38.51
  -0.00087061   0.00013127   0.00003282         -128.07       19.31        4.83
   0.00013127   0.00007856  -0.00009511           19.31       11.56      -13.99
   0.00003282  -0.00009511   0.00000677            4.83      -13.99        1.00

     kinetic stress (kbar)  25479.97     78.37    -43.59
                               78.37  25710.34    -10.49
                              -43.59    -10.49  25680.86

     local   stress (kbar)  -7392.01   3365.95  -7090.09
                             3365.95 -15377.86    618.79
                            -7090.09    618.79  -5293.84

     nonloc. stress (kbar)  -6520.31     10.34      1.62
                               10.34  -6492.24     -2.90
                                1.62     -2.90  -6485.42

     hartree stress (kbar)  13610.87  -1272.34   2977.81
                            -1272.34  17685.32   -190.49
                             2977.81   -190.49  13261.83

     exc-cor stress (kbar)  -2704.65     -2.81      3.13
                               -2.81  -2708.46     -1.11
                                3.13     -1.11  -2709.60

     corecor stress (kbar)  -3012.55     -0.22     -0.88
                               -0.22  -3014.70      0.85
                               -0.88      0.85  -3014.62

     ewald   stress (kbar) -19589.39  -2159.99   4156.84
                            -2159.99 -15790.86   -428.64
                             4156.84   -428.64 -21438.21

     hubbard stress (kbar)      0.00      0.00      0.00
                                0.00      0.00      0.00
                                0.00      0.00      0.00

     DFT-D   stress (kbar)      0.00      0.00      0.00
                                0.00      0.00      0.00
                                0.00      0.00      0.00

     XDM     stress (kbar)      0.00      0.00      0.00
                                0.00      0.00      0.00
                                0.00      0.00      0.00

     dft-nl  stress (kbar)      0.00      0.00      0.00
                                0.00      0.00      0.00
                                0.00      0.00      0.00

     TS-vdW  stress (kbar)      0.00      0.00      0.00
                                0.00      0.00      0.00
                                0.00      0.00      0.00



     init_run     :   1923.20s CPU   2432.74s WALL (       1 calls)
     electrons    : 165547.71s CPU 202623.95s WALL (       1 calls)
     forces       :    350.96s CPU    352.74s WALL (       1 calls)
     stress       :    941.76s CPU   1093.51s WALL (       1 calls)

     Called by init_run:
     wfcinit      :   1906.48s CPU   2397.98s WALL (       1 calls)
     wfcinit:atom :      1.72s CPU      2.35s WALL (     316 calls)
     wfcinit:wfcr :   1895.61s CPU   2383.72s WALL (     316 calls)
     potinit      :      6.41s CPU     12.84s WALL (       1 calls)
     hinit0       :      7.35s CPU     15.40s WALL (       1 calls)

     Called by electrons:
     c_bands      : 138805.77s CPU 169849.98s WALL (      34 calls)
     sum_band     :  26491.47s CPU  32444.51s WALL (      34 calls)
     v_of_rho     :     74.65s CPU     93.32s WALL (      35 calls)
     v_h          :      5.09s CPU      6.65s WALL (      35 calls)
     v_xc         :     74.37s CPU     91.51s WALL (      37 calls)
     newd         :     80.12s CPU    121.13s WALL (      35 calls)
     PAW_pot      :     34.36s CPU     42.90s WALL (      35 calls)
     mix_rho      :     47.03s CPU     58.20s WALL (      34 calls)

     Called by c_bands:
     init_us_2    :    179.60s CPU    221.46s WALL (   22436 calls)
     cegterg      : 137494.61s CPU 168211.91s WALL (   10744 calls)

     Called by sum_band:
     sum_band:wei :      0.55s CPU      0.69s WALL (      34 calls)
     sum_band:loo :  26287.08s CPU  32165.88s WALL (      34 calls)
     sum_band:buf :     46.89s CPU     52.26s WALL (   10744 calls)
     sum_band:ini :     77.41s CPU     97.49s WALL (   10744 calls)
     sum_band:cal :   2146.27s CPU   2611.03s WALL (   10744 calls)
     sum_band:bec :      6.00s CPU      6.34s WALL (   10744 calls)
     addusdens    :    167.91s CPU    238.15s WALL (      34 calls)
     addusd:skk   :      0.85s CPU      1.11s WALL (     102 calls)
     addusd:dgemm :     45.94s CPU     78.83s WALL (     204 calls)
     addusd:qvan2 :    119.05s CPU    151.40s WALL (     204 calls)

     Called by *egterg:
     cdiaghg      :   3608.20s CPU   4500.11s WALL (   39969 calls)
     cegterg:over :   6357.60s CPU   7663.37s WALL (   29225 calls)
     cegterg:upda :   1217.82s CPU   1536.52s WALL (   29225 calls)
     cegterg:last :   2576.27s CPU   3237.06s WALL (   18216 calls)
     h_psi        : 117273.96s CPU 143561.61s WALL (   40285 calls)
     s_psi        :   2674.41s CPU   3340.90s WALL (   40285 calls)
     g_psi        :     20.75s CPU     25.34s WALL (   29225 calls)

     Called by h_psi:
     h_psi:calbec :   5598.47s CPU   6793.53s WALL (   40285 calls)
     vloc_psi     : 108852.58s CPU 133173.22s WALL (   40285 calls)
     add_vuspsi   :   2750.02s CPU   3512.46s WALL (   40285 calls)

     General routines
     calbec       :   8283.91s CPU   9962.80s WALL (   52609 calls)
     fft          :    111.08s CPU    133.27s WALL (     913 calls)
     ffts         :     10.74s CPU     12.97s WALL (     138 calls)
     fftw         : 132410.21s CPU 162076.38s WALL ( 6761548 calls)
     interpolate  :     11.70s CPU     14.61s WALL (      70 calls)

     Parallel routines
     fft_scatt_xy :    658.41s CPU    661.87s WALL ( 6762599 calls)
     fft_scatt_yz : 128248.75s CPU 157849.16s WALL ( 6762599 calls)

     PAW routines
     PAW_pot      :     34.36s CPU     42.90s WALL (      35 calls)

     PWSCF        :   1d22h52m CPU   2d 9h21m WALL


   This run was terminated on:   6: 4:11  15Jan2023            

=------------------------------------------------------------------------------=
   JOB DONE.
=------------------------------------------------------------------------------=
Note: The following floating-point exceptions are signalling: IEEE_UNDERFLOW_FLAG IEEE_DENORMAL
Note: The following floating-point exceptions are signalling: IEEE_DENORMAL
Note: The following floating-point exceptions are signalling: IEEE_DENORMAL
Note: The following floating-point exceptions are signalling: IEEE_DENORMAL
Note: The following floating-point exceptions are signalling: IEEE_DENORMAL
Note: The following floating-point exceptions are signalling: IEEE_DENORMAL
Note: The following floating-point exceptions are signalling: IEEE_DENORMAL
Note: The following floating-point exceptions are signalling: IEEE_DENORMAL
Note: The following floating-point exceptions are signalling: IEEE_DENORMAL
Note: The following floating-point exceptions are signalling: IEEE_DENORMAL
