
     Program PWSCF v.6.7MaX starts on 24Jan2023 at  1:13:13 

     This program is part of the open-source Quantum ESPRESSO suite
     for quantum simulation of materials; please cite
         "P. Giannozzi et al., J. Phys.:Condens. Matter 21 395502 (2009);
         "P. Giannozzi et al., J. Phys.:Condens. Matter 29 465901 (2017);
          URL http://www.quantum-espresso.org", 
     in publications or presentations arising from this work. More details at
     http://www.quantum-espresso.org/quote

     Parallel version (MPI), running on    24 processors

     MPI processes distributed on     1 nodes
     R & G space division:  proc/nbgrp/npool/nimage =      24
     Reading input from scale_2dab-05.in

     Current dimensions of program PWSCF are:
     Max number of different atomic species (ntypx) = 10
     Max number of k-points (npk) =  40000
     Max angular momentum in pseudopotentials (lmaxx) =  3
     Message from routine read_pp_mesh:
     mesh size missing, using the one in header
     file Fe.pbe-spn-kjpaw_psl.0.2.1.UPF: wavefunction(s)  3D renormalized
     file O.pbe-n-kjpaw_psl.0.1.UPF: wavefunction(s)  2P renormalized

     Subspace diagonalization in iterative solution of the eigenvalue problem:
     a serial algorithm will be used


     Parallelization info
     --------------------
     sticks:   dense  smooth     PW     G-vecs:    dense   smooth      PW
     Min         912     338     91                59470    13411    1881
     Max         913     340     92                59472    13412    1884
     Sum       21895    8121   2193              1427303   321883   45159



     bravais-lattice index     =            0
     lattice parameter (alat)  =      20.6483  a.u.
     unit-cell volume          =    2381.7944 (a.u.)^3
     number of atoms/cell      =           25
     number of atomic types    =            4
     number of electrons       =       189.00
     number of Kohn-Sham states=          114
     kinetic-energy cutoff     =     100.0000  Ry
     charge density cutoff     =    1080.0000  Ry
     scf convergence threshold =      2.0E-10
     mixing beta               =       0.4000
     number of iterations used =            8  plain     mixing
     Exchange-correlation= PBE
                           (   1   4   3   4   0   0   0)

     celldm(1)=  20.648310  celldm(2)=   0.000000  celldm(3)=   0.000000
     celldm(4)=   0.000000  celldm(5)=   0.000000  celldm(6)=   0.000000

     crystal axes: (cart. coord. in units of alat)
               a(1) = (   1.000000   0.000000   0.000000 )  
               a(2) = (   0.000000   0.597590   0.000000 )  
               a(3) = (   0.000000   0.000000   0.452739 )  

     reciprocal axes: (cart. coord. in units 2 pi/alat)
               b(1) = (  1.000000  0.000000  0.000000 )  
               b(2) = (  0.000000  1.673388  0.000000 )  
               b(3) = (  0.000000  0.000000  2.208780 )  


     PseudoPot. # 1 for Fe read from file:
     /opt/QEpot/SSSP_precision_pseudos/Fe.pbe-spn-kjpaw_psl.0.2.1.UPF
     MD5 check sum: e86618425769142926afa95317d90200
     Pseudo is Projector augmented-wave + core cor, Zval = 16.0
     Generated using "atomic" code by A. Dal Corso  v.5.0.99 svn rev. 10869
     Shape of augmentation charge: PSQ
     Using radial grid of 1191 points,  6 beta functions with: 
                l(1) =   0
                l(2) =   0
                l(3) =   1
                l(4) =   1
                l(5) =   2
                l(6) =   2
     Q(r) pseudized with 0 coefficients 


     PseudoPot. # 2 for Na read from file:
     /opt/QEpot/SSSP_precision_pseudos/Na_ONCV_PBE-1.0.oncvpsp.upf
     MD5 check sum: 24a298df0a6742ae313db96548fdb2a4
     Pseudo is Norm-conserving, Zval =  9.0
     Generated using ONCVPSP code by D. R. Hamann
     Using radial grid of 1992 points,  4 beta functions with: 
                l(1) =   0
                l(2) =   0
                l(3) =   1
                l(4) =   1

     PseudoPot. # 3 for O  read from file:
     /opt/QEpot/SSSP_precision_pseudos/O.pbe-n-kjpaw_psl.0.1.UPF
     MD5 check sum: 0234752ac141de4415c5fc33072bef88
     Pseudo is Projector augmented-wave + core cor, Zval =  6.0
     Generated using "atomic" code by A. Dal Corso  v.5.0.99 svn rev. 10869
     Shape of augmentation charge: BESSEL
     Using radial grid of 1095 points,  4 beta functions with: 
                l(1) =   0
                l(2) =   0
                l(3) =   1
                l(4) =   1
     Q(r) pseudized with 0 coefficients 


     PseudoPot. # 4 for P  read from file:
     /opt/QEpot/SSSP_precision_pseudos/P.pbe-n-rrkjus_psl.1.0.0.UPF
     MD5 check sum: 8b930f418f0a4573dca56cd030ffe088
     Pseudo is Ultrasoft + core correction, Zval =  5.0
     Generated using "atomic" code by A. Dal Corso  v.5.1
     Using radial grid of 1147 points,  6 beta functions with: 
                l(1) =   0
                l(2) =   0
                l(3) =   1
                l(4) =   1
                l(5) =   2
                l(6) =   2
     Q(r) pseudized with 0 coefficients 


     atomic species   valence    mass     pseudopotential
        Fe            16.00    55.84500     Fe( 1.00)
        Na             9.00    22.98977     Na( 1.00)
        O              6.00    15.99940     O ( 1.00)
        P              5.00    30.97376     P ( 1.00)

     Starting magnetic structure 
     atomic species   magnetization
        Fe           0.312
        Na           0.000
        O            0.000
        P            0.000

     No symmetry found


                                    s                        frac. trans.

      isym =  1     identity                                     

 cryst.   s( 1) = (     1          0          0      )
                  (     0          1          0      )
                  (     0          0          1      )

 cart.    s( 1) = (  1.0000000  0.0000000  0.0000000 )
                  (  0.0000000  1.0000000  0.0000000 )
                  (  0.0000000  0.0000000  1.0000000 )


   Cartesian axes

     site n.     atom                  positions (alat units)
         1           Na  tau(   1) = (   0.9908320   0.5356354   0.3725350  )
         2           Fe  tau(   2) = (   0.2986640   0.4600636   0.3882767  )
         3           Fe  tau(   3) = (   0.2176140   0.1809861   0.2181797  )
         4           Fe  tau(   4) = (   0.6993130   0.1376997   0.0543377  )
         5           Fe  tau(   5) = (   0.7827270   0.3981778   0.2125336  )
         6           P   tau(   6) = (   0.0964330   0.4188508   0.1401335  )
         7           P   tau(   7) = (   0.3931680   0.1503273   0.4165756  )
         8           P   tau(   8) = (   0.9083370   0.1933305   0.3108892  )
         9           P   tau(   9) = (   0.6077760   0.4480138   0.0157213  )
        10           O   tau(  10) = (   0.1605150   0.4345309   0.2672271  )
        11           O   tau(  11) = (   0.3515630   0.1480744   0.0987368  )
        12           O   tau(  12) = (   0.8284030   0.1978238   0.1883343  )
        13           O   tau(  13) = (   0.6540840   0.4478219   0.3349355  )
        14           O   tau(  14) = (   0.4610620   0.4592915   0.0258369  )
        15           O   tau(  15) = (   0.0466520   0.1415410   0.2957297  )
        16           O   tau(  16) = (   0.5400580   0.1412236   0.4050679  )
        17           O   tau(  17) = (   0.9523340   0.4615330   0.1462146  )
        18           O   tau(  18) = (   0.1650350   0.5123144   0.0497134  )
        19           O   tau(  19) = (   0.3242430   0.0432697   0.3373427  )
        20           O   tau(  20) = (   0.8958430   0.3332681   0.3573185  )
        21           O   tau(  21) = (   0.6568690   0.3248242   0.0872685  )
        22           O   tau(  22) = (   0.8385610   0.0970677   0.3976702  )
        23           O   tau(  23) = (   0.6777090   0.5527014   0.0966126  )
        24           O   tau(  24) = (   0.1168020   0.2790685   0.0963228  )
        25           O   tau(  25) = (   0.3354730   0.2712646   0.3458601  )

   Crystallographic axes

     site n.     atom                  positions (cryst. coord.)
         1           Na  tau(   1) = (  0.9908320  0.8963260  0.8228480  )
         2           Fe  tau(   2) = (  0.2986640  0.7698650  0.8576180  )
         3           Fe  tau(   3) = (  0.2176140  0.3028600  0.4819110  )
         4           Fe  tau(   4) = (  0.6993130  0.2304250  0.1200200  )
         5           Fe  tau(   5) = (  0.7827270  0.6663060  0.4694400  )
         6           P   tau(   6) = (  0.0964330  0.7009000  0.3095240  )
         7           P   tau(   7) = (  0.3931680  0.2515560  0.9201240  )
         8           P   tau(   8) = (  0.9083370  0.3235170  0.6866860  )
         9           P   tau(   9) = (  0.6077760  0.7497010  0.0347250  )
        10           O   tau(  10) = (  0.1605150  0.7271390  0.5902460  )
        11           O   tau(  11) = (  0.3515630  0.2477860  0.2180880  )
        12           O   tau(  12) = (  0.8284030  0.3310360  0.4159890  )
        13           O   tau(  13) = (  0.6540840  0.7493800  0.7397990  )
        14           O   tau(  14) = (  0.4610620  0.7685730  0.0570680  )
        15           O   tau(  15) = (  0.0466520  0.2368530  0.6532020  )
        16           O   tau(  16) = (  0.5400580  0.2363220  0.8947060  )
        17           O   tau(  17) = (  0.9523340  0.7723240  0.3229560  )
        18           O   tau(  18) = (  0.1650350  0.8573010  0.1098060  )
        19           O   tau(  19) = (  0.3242430  0.0724070  0.7451160  )
        20           O   tau(  20) = (  0.8958430  0.5576870  0.7892380  )
        21           O   tau(  21) = (  0.6568690  0.5435570  0.1927570  )
        22           O   tau(  22) = (  0.8385610  0.1624320  0.8783660  )
        23           O   tau(  23) = (  0.6777090  0.9248840  0.2133960  )
        24           O   tau(  24) = (  0.1168020  0.4669900  0.2127560  )
        25           O   tau(  25) = (  0.3354730  0.4539310  0.7639290  )

     number of k points=   158  Marzari-Vanderbilt smearing, width (Ry)=  0.0073
                       cart. coord. in units 2pi/alat
        k(    1) = (   0.0000000   0.0000000   0.0000000), wk =   0.0031746
        k(    2) = (   0.0000000   0.0000000   0.2454200), wk =   0.0063492
        k(    3) = (   0.0000000   0.0000000   0.4908401), wk =   0.0063492
        k(    4) = (   0.0000000   0.0000000   0.7362601), wk =   0.0063492
        k(    5) = (   0.0000000   0.0000000   0.9816801), wk =   0.0063492
        k(    6) = (   0.0000000   0.2390555   0.0000000), wk =   0.0063492
        k(    7) = (   0.0000000   0.2390555   0.2454200), wk =   0.0063492
        k(    8) = (   0.0000000   0.2390555   0.4908401), wk =   0.0063492
        k(    9) = (   0.0000000   0.2390555   0.7362601), wk =   0.0063492
        k(   10) = (   0.0000000   0.2390555   0.9816801), wk =   0.0063492
        k(   11) = (   0.0000000   0.4781110   0.0000000), wk =   0.0063492
        k(   12) = (   0.0000000   0.4781110   0.2454200), wk =   0.0063492
        k(   13) = (   0.0000000   0.4781110   0.4908401), wk =   0.0063492
        k(   14) = (   0.0000000   0.4781110   0.7362601), wk =   0.0063492
        k(   15) = (   0.0000000   0.4781110   0.9816801), wk =   0.0063492
        k(   16) = (   0.0000000   0.7171664   0.0000000), wk =   0.0063492
        k(   17) = (   0.0000000   0.7171664   0.2454200), wk =   0.0063492
        k(   18) = (   0.0000000   0.7171664   0.4908401), wk =   0.0063492
        k(   19) = (   0.0000000   0.7171664   0.7362601), wk =   0.0063492
        k(   20) = (   0.0000000   0.7171664   0.9816801), wk =   0.0063492
        k(   21) = (   0.2000000   0.0000000   0.0000000), wk =   0.0063492
        k(   22) = (   0.2000000   0.0000000   0.2454200), wk =   0.0063492
        k(   23) = (   0.2000000   0.0000000   0.4908401), wk =   0.0063492
        k(   24) = (   0.2000000   0.0000000   0.7362601), wk =   0.0063492
        k(   25) = (   0.2000000   0.0000000   0.9816801), wk =   0.0063492
        k(   26) = (   0.2000000   0.2390555   0.0000000), wk =   0.0063492
        k(   27) = (   0.2000000   0.2390555   0.2454200), wk =   0.0063492
        k(   28) = (   0.2000000   0.2390555   0.4908401), wk =   0.0063492
        k(   29) = (   0.2000000   0.2390555   0.7362601), wk =   0.0063492
        k(   30) = (   0.2000000   0.2390555   0.9816801), wk =   0.0063492
        k(   31) = (   0.2000000   0.4781110   0.0000000), wk =   0.0063492
        k(   32) = (   0.2000000   0.4781110   0.2454200), wk =   0.0063492
        k(   33) = (   0.2000000   0.4781110   0.4908401), wk =   0.0063492
        k(   34) = (   0.2000000   0.4781110   0.7362601), wk =   0.0063492
        k(   35) = (   0.2000000   0.4781110   0.9816801), wk =   0.0063492
        k(   36) = (   0.2000000   0.7171664   0.0000000), wk =   0.0063492
        k(   37) = (   0.2000000   0.7171664   0.2454200), wk =   0.0063492
        k(   38) = (   0.2000000   0.7171664   0.4908401), wk =   0.0063492
        k(   39) = (   0.2000000   0.7171664   0.7362601), wk =   0.0063492
        k(   40) = (   0.2000000   0.7171664   0.9816801), wk =   0.0063492
        k(   41) = (   0.4000000   0.0000000   0.0000000), wk =   0.0063492
        k(   42) = (   0.4000000   0.0000000   0.2454200), wk =   0.0063492
        k(   43) = (   0.4000000   0.0000000   0.4908401), wk =   0.0063492
        k(   44) = (   0.4000000   0.0000000   0.7362601), wk =   0.0063492
        k(   45) = (   0.4000000   0.0000000   0.9816801), wk =   0.0063492
        k(   46) = (   0.4000000   0.2390555   0.0000000), wk =   0.0063492
        k(   47) = (   0.4000000   0.2390555   0.2454200), wk =   0.0063492
        k(   48) = (   0.4000000   0.2390555   0.4908401), wk =   0.0063492
        k(   49) = (   0.4000000   0.2390555   0.7362601), wk =   0.0063492
        k(   50) = (   0.4000000   0.2390555   0.9816801), wk =   0.0063492
        k(   51) = (   0.4000000   0.4781110   0.0000000), wk =   0.0063492
        k(   52) = (   0.4000000   0.4781110   0.2454200), wk =   0.0063492
        k(   53) = (   0.4000000   0.4781110   0.4908401), wk =   0.0063492
        k(   54) = (   0.4000000   0.4781110   0.7362601), wk =   0.0063492
        k(   55) = (   0.4000000   0.4781110   0.9816801), wk =   0.0063492
        k(   56) = (   0.4000000   0.7171664   0.0000000), wk =   0.0063492
        k(   57) = (   0.4000000   0.7171664   0.2454200), wk =   0.0063492
        k(   58) = (   0.4000000   0.7171664   0.4908401), wk =   0.0063492
        k(   59) = (   0.4000000   0.7171664   0.7362601), wk =   0.0063492
        k(   60) = (   0.4000000   0.7171664   0.9816801), wk =   0.0063492
        k(   61) = (   0.0000000  -0.2390555   0.2454200), wk =   0.0063492
        k(   62) = (   0.0000000  -0.2390555   0.4908401), wk =   0.0063492
        k(   63) = (   0.0000000  -0.2390555   0.7362601), wk =   0.0063492
        k(   64) = (   0.0000000  -0.2390555   0.9816801), wk =   0.0063492
        k(   65) = (   0.0000000  -0.4781110   0.2454200), wk =   0.0063492
        k(   66) = (   0.0000000  -0.4781110   0.4908401), wk =   0.0063492
        k(   67) = (   0.0000000  -0.4781110   0.7362601), wk =   0.0063492
        k(   68) = (   0.0000000  -0.4781110   0.9816801), wk =   0.0063492
        k(   69) = (   0.0000000  -0.7171664   0.2454200), wk =   0.0063492
        k(   70) = (   0.0000000  -0.7171664   0.4908401), wk =   0.0063492
        k(   71) = (   0.0000000  -0.7171664   0.7362601), wk =   0.0063492
        k(   72) = (   0.0000000  -0.7171664   0.9816801), wk =   0.0063492
        k(   73) = (  -0.2000000   0.0000000   0.2454200), wk =   0.0063492
        k(   74) = (  -0.2000000   0.0000000   0.4908401), wk =   0.0063492
        k(   75) = (  -0.2000000   0.0000000   0.7362601), wk =   0.0063492
        k(   76) = (  -0.2000000   0.0000000   0.9816801), wk =   0.0063492
        k(   77) = (  -0.2000000   0.2390555   0.0000000), wk =   0.0063492
        k(   78) = (  -0.2000000  -0.2390555   0.2454200), wk =   0.0063492
        k(   79) = (  -0.2000000   0.2390555  -0.2454200), wk =   0.0063492
        k(   80) = (   0.2000000  -0.2390555  -0.2454200), wk =   0.0063492
        k(   81) = (  -0.2000000  -0.2390555   0.4908401), wk =   0.0063492
        k(   82) = (  -0.2000000   0.2390555  -0.4908401), wk =   0.0063492
        k(   83) = (   0.2000000  -0.2390555  -0.4908401), wk =   0.0063492
        k(   84) = (  -0.2000000  -0.2390555   0.7362601), wk =   0.0063492
        k(   85) = (  -0.2000000   0.2390555  -0.7362601), wk =   0.0063492
        k(   86) = (   0.2000000  -0.2390555  -0.7362601), wk =   0.0063492
        k(   87) = (  -0.2000000  -0.2390555   0.9816801), wk =   0.0063492
        k(   88) = (  -0.2000000   0.2390555  -0.9816801), wk =   0.0063492
        k(   89) = (   0.2000000  -0.2390555  -0.9816801), wk =   0.0063492
        k(   90) = (  -0.2000000   0.4781110   0.0000000), wk =   0.0063492
        k(   91) = (  -0.2000000  -0.4781110   0.2454200), wk =   0.0063492
        k(   92) = (  -0.2000000   0.4781110  -0.2454200), wk =   0.0063492
        k(   93) = (   0.2000000  -0.4781110  -0.2454200), wk =   0.0063492
        k(   94) = (  -0.2000000  -0.4781110   0.4908401), wk =   0.0063492
        k(   95) = (  -0.2000000   0.4781110  -0.4908401), wk =   0.0063492
        k(   96) = (   0.2000000  -0.4781110  -0.4908401), wk =   0.0063492
        k(   97) = (  -0.2000000  -0.4781110   0.7362601), wk =   0.0063492
        k(   98) = (  -0.2000000   0.4781110  -0.7362601), wk =   0.0063492
        k(   99) = (   0.2000000  -0.4781110  -0.7362601), wk =   0.0063492
        k(  100) = (  -0.2000000  -0.4781110   0.9816801), wk =   0.0063492
        k(  101) = (  -0.2000000   0.4781110  -0.9816801), wk =   0.0063492
        k(  102) = (   0.2000000  -0.4781110  -0.9816801), wk =   0.0063492
        k(  103) = (  -0.2000000   0.7171664   0.0000000), wk =   0.0063492
        k(  104) = (  -0.2000000  -0.7171664   0.2454200), wk =   0.0063492
        k(  105) = (  -0.2000000   0.7171664  -0.2454200), wk =   0.0063492
        k(  106) = (   0.2000000  -0.7171664  -0.2454200), wk =   0.0063492
        k(  107) = (  -0.2000000  -0.7171664   0.4908401), wk =   0.0063492
        k(  108) = (  -0.2000000   0.7171664  -0.4908401), wk =   0.0063492
        k(  109) = (   0.2000000  -0.7171664  -0.4908401), wk =   0.0063492
        k(  110) = (  -0.2000000  -0.7171664   0.7362601), wk =   0.0063492
        k(  111) = (  -0.2000000   0.7171664  -0.7362601), wk =   0.0063492
        k(  112) = (   0.2000000  -0.7171664  -0.7362601), wk =   0.0063492
        k(  113) = (  -0.2000000  -0.7171664   0.9816801), wk =   0.0063492
        k(  114) = (  -0.2000000   0.7171664  -0.9816801), wk =   0.0063492
        k(  115) = (   0.2000000  -0.7171664  -0.9816801), wk =   0.0063492
        k(  116) = (  -0.4000000   0.0000000   0.2454200), wk =   0.0063492
        k(  117) = (  -0.4000000   0.0000000   0.4908401), wk =   0.0063492
        k(  118) = (  -0.4000000   0.0000000   0.7362601), wk =   0.0063492
        k(  119) = (  -0.4000000   0.0000000   0.9816801), wk =   0.0063492
        k(  120) = (  -0.4000000   0.2390555   0.0000000), wk =   0.0063492
        k(  121) = (  -0.4000000  -0.2390555   0.2454200), wk =   0.0063492
        k(  122) = (  -0.4000000   0.2390555  -0.2454200), wk =   0.0063492
        k(  123) = (   0.4000000  -0.2390555  -0.2454200), wk =   0.0063492
        k(  124) = (  -0.4000000  -0.2390555   0.4908401), wk =   0.0063492
        k(  125) = (  -0.4000000   0.2390555  -0.4908401), wk =   0.0063492
        k(  126) = (   0.4000000  -0.2390555  -0.4908401), wk =   0.0063492
        k(  127) = (  -0.4000000  -0.2390555   0.7362601), wk =   0.0063492
        k(  128) = (  -0.4000000   0.2390555  -0.7362601), wk =   0.0063492
        k(  129) = (   0.4000000  -0.2390555  -0.7362601), wk =   0.0063492
        k(  130) = (  -0.4000000  -0.2390555   0.9816801), wk =   0.0063492
        k(  131) = (  -0.4000000   0.2390555  -0.9816801), wk =   0.0063492
        k(  132) = (   0.4000000  -0.2390555  -0.9816801), wk =   0.0063492
        k(  133) = (  -0.4000000   0.4781110   0.0000000), wk =   0.0063492
        k(  134) = (  -0.4000000  -0.4781110   0.2454200), wk =   0.0063492
        k(  135) = (  -0.4000000   0.4781110  -0.2454200), wk =   0.0063492
        k(  136) = (   0.4000000  -0.4781110  -0.2454200), wk =   0.0063492
        k(  137) = (  -0.4000000  -0.4781110   0.4908401), wk =   0.0063492
        k(  138) = (  -0.4000000   0.4781110  -0.4908401), wk =   0.0063492
        k(  139) = (   0.4000000  -0.4781110  -0.4908401), wk =   0.0063492
        k(  140) = (  -0.4000000  -0.4781110   0.7362601), wk =   0.0063492
        k(  141) = (  -0.4000000   0.4781110  -0.7362601), wk =   0.0063492
        k(  142) = (   0.4000000  -0.4781110  -0.7362601), wk =   0.0063492
        k(  143) = (  -0.4000000  -0.4781110   0.9816801), wk =   0.0063492
        k(  144) = (  -0.4000000   0.4781110  -0.9816801), wk =   0.0063492
        k(  145) = (   0.4000000  -0.4781110  -0.9816801), wk =   0.0063492
        k(  146) = (  -0.4000000   0.7171664   0.0000000), wk =   0.0063492
        k(  147) = (  -0.4000000  -0.7171664   0.2454200), wk =   0.0063492
        k(  148) = (  -0.4000000   0.7171664  -0.2454200), wk =   0.0063492
        k(  149) = (   0.4000000  -0.7171664  -0.2454200), wk =   0.0063492
        k(  150) = (  -0.4000000  -0.7171664   0.4908401), wk =   0.0063492
        k(  151) = (  -0.4000000   0.7171664  -0.4908401), wk =   0.0063492
        k(  152) = (   0.4000000  -0.7171664  -0.4908401), wk =   0.0063492
        k(  153) = (  -0.4000000  -0.7171664   0.7362601), wk =   0.0063492
        k(  154) = (  -0.4000000   0.7171664  -0.7362601), wk =   0.0063492
        k(  155) = (   0.4000000  -0.7171664  -0.7362601), wk =   0.0063492
        k(  156) = (  -0.4000000  -0.7171664   0.9816801), wk =   0.0063492
        k(  157) = (  -0.4000000   0.7171664  -0.9816801), wk =   0.0063492
        k(  158) = (   0.4000000  -0.7171664  -0.9816801), wk =   0.0063492

                       cryst. coord.
        k(    1) = (   0.0000000   0.0000000   0.0000000), wk =   0.0031746
        k(    2) = (   0.0000000   0.0000000   0.1111111), wk =   0.0063492
        k(    3) = (   0.0000000   0.0000000   0.2222222), wk =   0.0063492
        k(    4) = (   0.0000000   0.0000000   0.3333333), wk =   0.0063492
        k(    5) = (   0.0000000   0.0000000   0.4444444), wk =   0.0063492
        k(    6) = (   0.0000000   0.1428571   0.0000000), wk =   0.0063492
        k(    7) = (   0.0000000   0.1428571   0.1111111), wk =   0.0063492
        k(    8) = (   0.0000000   0.1428571   0.2222222), wk =   0.0063492
        k(    9) = (   0.0000000   0.1428571   0.3333333), wk =   0.0063492
        k(   10) = (   0.0000000   0.1428571   0.4444444), wk =   0.0063492
        k(   11) = (   0.0000000   0.2857143   0.0000000), wk =   0.0063492
        k(   12) = (   0.0000000   0.2857143   0.1111111), wk =   0.0063492
        k(   13) = (   0.0000000   0.2857143   0.2222222), wk =   0.0063492
        k(   14) = (   0.0000000   0.2857143   0.3333333), wk =   0.0063492
        k(   15) = (   0.0000000   0.2857143   0.4444444), wk =   0.0063492
        k(   16) = (   0.0000000   0.4285714   0.0000000), wk =   0.0063492
        k(   17) = (   0.0000000   0.4285714   0.1111111), wk =   0.0063492
        k(   18) = (   0.0000000   0.4285714   0.2222222), wk =   0.0063492
        k(   19) = (   0.0000000   0.4285714   0.3333333), wk =   0.0063492
        k(   20) = (   0.0000000   0.4285714   0.4444444), wk =   0.0063492
        k(   21) = (   0.2000000   0.0000000   0.0000000), wk =   0.0063492
        k(   22) = (   0.2000000   0.0000000   0.1111111), wk =   0.0063492
        k(   23) = (   0.2000000   0.0000000   0.2222222), wk =   0.0063492
        k(   24) = (   0.2000000   0.0000000   0.3333333), wk =   0.0063492
        k(   25) = (   0.2000000   0.0000000   0.4444444), wk =   0.0063492
        k(   26) = (   0.2000000   0.1428571   0.0000000), wk =   0.0063492
        k(   27) = (   0.2000000   0.1428571   0.1111111), wk =   0.0063492
        k(   28) = (   0.2000000   0.1428571   0.2222222), wk =   0.0063492
        k(   29) = (   0.2000000   0.1428571   0.3333333), wk =   0.0063492
        k(   30) = (   0.2000000   0.1428571   0.4444444), wk =   0.0063492
        k(   31) = (   0.2000000   0.2857143   0.0000000), wk =   0.0063492
        k(   32) = (   0.2000000   0.2857143   0.1111111), wk =   0.0063492
        k(   33) = (   0.2000000   0.2857143   0.2222222), wk =   0.0063492
        k(   34) = (   0.2000000   0.2857143   0.3333333), wk =   0.0063492
        k(   35) = (   0.2000000   0.2857143   0.4444444), wk =   0.0063492
        k(   36) = (   0.2000000   0.4285714   0.0000000), wk =   0.0063492
        k(   37) = (   0.2000000   0.4285714   0.1111111), wk =   0.0063492
        k(   38) = (   0.2000000   0.4285714   0.2222222), wk =   0.0063492
        k(   39) = (   0.2000000   0.4285714   0.3333333), wk =   0.0063492
        k(   40) = (   0.2000000   0.4285714   0.4444444), wk =   0.0063492
        k(   41) = (   0.4000000   0.0000000   0.0000000), wk =   0.0063492
        k(   42) = (   0.4000000   0.0000000   0.1111111), wk =   0.0063492
        k(   43) = (   0.4000000   0.0000000   0.2222222), wk =   0.0063492
        k(   44) = (   0.4000000   0.0000000   0.3333333), wk =   0.0063492
        k(   45) = (   0.4000000   0.0000000   0.4444444), wk =   0.0063492
        k(   46) = (   0.4000000   0.1428571   0.0000000), wk =   0.0063492
        k(   47) = (   0.4000000   0.1428571   0.1111111), wk =   0.0063492
        k(   48) = (   0.4000000   0.1428571   0.2222222), wk =   0.0063492
        k(   49) = (   0.4000000   0.1428571   0.3333333), wk =   0.0063492
        k(   50) = (   0.4000000   0.1428571   0.4444444), wk =   0.0063492
        k(   51) = (   0.4000000   0.2857143   0.0000000), wk =   0.0063492
        k(   52) = (   0.4000000   0.2857143   0.1111111), wk =   0.0063492
        k(   53) = (   0.4000000   0.2857143   0.2222222), wk =   0.0063492
        k(   54) = (   0.4000000   0.2857143   0.3333333), wk =   0.0063492
        k(   55) = (   0.4000000   0.2857143   0.4444444), wk =   0.0063492
        k(   56) = (   0.4000000   0.4285714   0.0000000), wk =   0.0063492
        k(   57) = (   0.4000000   0.4285714   0.1111111), wk =   0.0063492
        k(   58) = (   0.4000000   0.4285714   0.2222222), wk =   0.0063492
        k(   59) = (   0.4000000   0.4285714   0.3333333), wk =   0.0063492
        k(   60) = (   0.4000000   0.4285714   0.4444444), wk =   0.0063492
        k(   61) = (   0.0000000  -0.1428571   0.1111111), wk =   0.0063492
        k(   62) = (   0.0000000  -0.1428571   0.2222222), wk =   0.0063492
        k(   63) = (   0.0000000  -0.1428571   0.3333333), wk =   0.0063492
        k(   64) = (   0.0000000  -0.1428571   0.4444444), wk =   0.0063492
        k(   65) = (   0.0000000  -0.2857143   0.1111111), wk =   0.0063492
        k(   66) = (   0.0000000  -0.2857143   0.2222222), wk =   0.0063492
        k(   67) = (   0.0000000  -0.2857143   0.3333333), wk =   0.0063492
        k(   68) = (   0.0000000  -0.2857143   0.4444444), wk =   0.0063492
        k(   69) = (   0.0000000  -0.4285714   0.1111111), wk =   0.0063492
        k(   70) = (   0.0000000  -0.4285714   0.2222222), wk =   0.0063492
        k(   71) = (   0.0000000  -0.4285714   0.3333333), wk =   0.0063492
        k(   72) = (   0.0000000  -0.4285714   0.4444444), wk =   0.0063492
        k(   73) = (  -0.2000000   0.0000000   0.1111111), wk =   0.0063492
        k(   74) = (  -0.2000000   0.0000000   0.2222222), wk =   0.0063492
        k(   75) = (  -0.2000000   0.0000000   0.3333333), wk =   0.0063492
        k(   76) = (  -0.2000000   0.0000000   0.4444444), wk =   0.0063492
        k(   77) = (  -0.2000000   0.1428571   0.0000000), wk =   0.0063492
        k(   78) = (  -0.2000000  -0.1428571   0.1111111), wk =   0.0063492
        k(   79) = (  -0.2000000   0.1428571  -0.1111111), wk =   0.0063492
        k(   80) = (   0.2000000  -0.1428571  -0.1111111), wk =   0.0063492
        k(   81) = (  -0.2000000  -0.1428571   0.2222222), wk =   0.0063492
        k(   82) = (  -0.2000000   0.1428571  -0.2222222), wk =   0.0063492
        k(   83) = (   0.2000000  -0.1428571  -0.2222222), wk =   0.0063492
        k(   84) = (  -0.2000000  -0.1428571   0.3333333), wk =   0.0063492
        k(   85) = (  -0.2000000   0.1428571  -0.3333333), wk =   0.0063492
        k(   86) = (   0.2000000  -0.1428571  -0.3333333), wk =   0.0063492
        k(   87) = (  -0.2000000  -0.1428571   0.4444444), wk =   0.0063492
        k(   88) = (  -0.2000000   0.1428571  -0.4444444), wk =   0.0063492
        k(   89) = (   0.2000000  -0.1428571  -0.4444444), wk =   0.0063492
        k(   90) = (  -0.2000000   0.2857143   0.0000000), wk =   0.0063492
        k(   91) = (  -0.2000000  -0.2857143   0.1111111), wk =   0.0063492
        k(   92) = (  -0.2000000   0.2857143  -0.1111111), wk =   0.0063492
        k(   93) = (   0.2000000  -0.2857143  -0.1111111), wk =   0.0063492
        k(   94) = (  -0.2000000  -0.2857143   0.2222222), wk =   0.0063492
        k(   95) = (  -0.2000000   0.2857143  -0.2222222), wk =   0.0063492
        k(   96) = (   0.2000000  -0.2857143  -0.2222222), wk =   0.0063492
        k(   97) = (  -0.2000000  -0.2857143   0.3333333), wk =   0.0063492
        k(   98) = (  -0.2000000   0.2857143  -0.3333333), wk =   0.0063492
        k(   99) = (   0.2000000  -0.2857143  -0.3333333), wk =   0.0063492
        k(  100) = (  -0.2000000  -0.2857143   0.4444444), wk =   0.0063492
        k(  101) = (  -0.2000000   0.2857143  -0.4444444), wk =   0.0063492
        k(  102) = (   0.2000000  -0.2857143  -0.4444444), wk =   0.0063492
        k(  103) = (  -0.2000000   0.4285714   0.0000000), wk =   0.0063492
        k(  104) = (  -0.2000000  -0.4285714   0.1111111), wk =   0.0063492
        k(  105) = (  -0.2000000   0.4285714  -0.1111111), wk =   0.0063492
        k(  106) = (   0.2000000  -0.4285714  -0.1111111), wk =   0.0063492
        k(  107) = (  -0.2000000  -0.4285714   0.2222222), wk =   0.0063492
        k(  108) = (  -0.2000000   0.4285714  -0.2222222), wk =   0.0063492
        k(  109) = (   0.2000000  -0.4285714  -0.2222222), wk =   0.0063492
        k(  110) = (  -0.2000000  -0.4285714   0.3333333), wk =   0.0063492
        k(  111) = (  -0.2000000   0.4285714  -0.3333333), wk =   0.0063492
        k(  112) = (   0.2000000  -0.4285714  -0.3333333), wk =   0.0063492
        k(  113) = (  -0.2000000  -0.4285714   0.4444444), wk =   0.0063492
        k(  114) = (  -0.2000000   0.4285714  -0.4444444), wk =   0.0063492
        k(  115) = (   0.2000000  -0.4285714  -0.4444444), wk =   0.0063492
        k(  116) = (  -0.4000000   0.0000000   0.1111111), wk =   0.0063492
        k(  117) = (  -0.4000000   0.0000000   0.2222222), wk =   0.0063492
        k(  118) = (  -0.4000000   0.0000000   0.3333333), wk =   0.0063492
        k(  119) = (  -0.4000000   0.0000000   0.4444444), wk =   0.0063492
        k(  120) = (  -0.4000000   0.1428571   0.0000000), wk =   0.0063492
        k(  121) = (  -0.4000000  -0.1428571   0.1111111), wk =   0.0063492
        k(  122) = (  -0.4000000   0.1428571  -0.1111111), wk =   0.0063492
        k(  123) = (   0.4000000  -0.1428571  -0.1111111), wk =   0.0063492
        k(  124) = (  -0.4000000  -0.1428571   0.2222222), wk =   0.0063492
        k(  125) = (  -0.4000000   0.1428571  -0.2222222), wk =   0.0063492
        k(  126) = (   0.4000000  -0.1428571  -0.2222222), wk =   0.0063492
        k(  127) = (  -0.4000000  -0.1428571   0.3333333), wk =   0.0063492
        k(  128) = (  -0.4000000   0.1428571  -0.3333333), wk =   0.0063492
        k(  129) = (   0.4000000  -0.1428571  -0.3333333), wk =   0.0063492
        k(  130) = (  -0.4000000  -0.1428571   0.4444444), wk =   0.0063492
        k(  131) = (  -0.4000000   0.1428571  -0.4444444), wk =   0.0063492
        k(  132) = (   0.4000000  -0.1428571  -0.4444444), wk =   0.0063492
        k(  133) = (  -0.4000000   0.2857143   0.0000000), wk =   0.0063492
        k(  134) = (  -0.4000000  -0.2857143   0.1111111), wk =   0.0063492
        k(  135) = (  -0.4000000   0.2857143  -0.1111111), wk =   0.0063492
        k(  136) = (   0.4000000  -0.2857143  -0.1111111), wk =   0.0063492
        k(  137) = (  -0.4000000  -0.2857143   0.2222222), wk =   0.0063492
        k(  138) = (  -0.4000000   0.2857143  -0.2222222), wk =   0.0063492
        k(  139) = (   0.4000000  -0.2857143  -0.2222222), wk =   0.0063492
        k(  140) = (  -0.4000000  -0.2857143   0.3333333), wk =   0.0063492
        k(  141) = (  -0.4000000   0.2857143  -0.3333333), wk =   0.0063492
        k(  142) = (   0.4000000  -0.2857143  -0.3333333), wk =   0.0063492
        k(  143) = (  -0.4000000  -0.2857143   0.4444444), wk =   0.0063492
        k(  144) = (  -0.4000000   0.2857143  -0.4444444), wk =   0.0063492
        k(  145) = (   0.4000000  -0.2857143  -0.4444444), wk =   0.0063492
        k(  146) = (  -0.4000000   0.4285714   0.0000000), wk =   0.0063492
        k(  147) = (  -0.4000000  -0.4285714   0.1111111), wk =   0.0063492
        k(  148) = (  -0.4000000   0.4285714  -0.1111111), wk =   0.0063492
        k(  149) = (   0.4000000  -0.4285714  -0.1111111), wk =   0.0063492
        k(  150) = (  -0.4000000  -0.4285714   0.2222222), wk =   0.0063492
        k(  151) = (  -0.4000000   0.4285714  -0.2222222), wk =   0.0063492
        k(  152) = (   0.4000000  -0.4285714  -0.2222222), wk =   0.0063492
        k(  153) = (  -0.4000000  -0.4285714   0.3333333), wk =   0.0063492
        k(  154) = (  -0.4000000   0.4285714  -0.3333333), wk =   0.0063492
        k(  155) = (   0.4000000  -0.4285714  -0.3333333), wk =   0.0063492
        k(  156) = (  -0.4000000  -0.4285714   0.4444444), wk =   0.0063492
        k(  157) = (  -0.4000000   0.4285714  -0.4444444), wk =   0.0063492
        k(  158) = (   0.4000000  -0.4285714  -0.4444444), wk =   0.0063492

     Dense  grid:  1427303 G-vectors     FFT dimensions: ( 216, 135, 100)

     Smooth grid:   321883 G-vectors     FFT dimensions: ( 135,  80,  60)

     Dynamical RAM for                 wfc:       2.91 MB

     Dynamical RAM for     wfc (w. buffer):     923.63 MB

     Dynamical RAM for           str. fact:       3.63 MB

     Dynamical RAM for           local pot:       0.00 MB

     Dynamical RAM for          nlocal pot:       7.16 MB

     Dynamical RAM for                qrad:      10.54 MB

     Dynamical RAM for          rho,v,vnew:      12.12 MB

     Dynamical RAM for               rhoin:       4.04 MB

     Dynamical RAM for            rho*nmix:      29.04 MB

     Dynamical RAM for           G-vectors:       3.51 MB

     Dynamical RAM for          h,s,v(r/c):       2.38 MB

     Dynamical RAM for          <psi|beta>:       0.49 MB

     Dynamical RAM for                 psi:       5.83 MB

     Dynamical RAM for                hpsi:       5.83 MB

     Dynamical RAM for                spsi:       5.83 MB

     Dynamical RAM for      wfcinit/wfcrot:       7.43 MB

     Dynamical RAM for           addusdens:     184.22 MB

     Dynamical RAM for          addusforce:     211.57 MB

     Dynamical RAM for         addusstress:     183.76 MB

     Estimated static dynamical RAM per process >    1004.88 MB

     Estimated max dynamical RAM per process >       1.19 GB

     Estimated total dynamical RAM >      28.51 GB

     Check: negative core charge=   -0.000003
     Generating pointlists ...
     new r_m :   0.0749 (alat units)  1.5475 (a.u.) for type    1
     new r_m :   0.0902 (alat units)  1.8616 (a.u.) for type    2
     new r_m :   0.0582 (alat units)  1.2026 (a.u.) for type    3
     new r_m :   0.0582 (alat units)  1.2026 (a.u.) for type    4

     Initial potential from superposition of free atoms

     starting charge  188.99132, renormalised to  189.00000
     Starting wfcs are  137 randomized atomic wfcs
     Checking if some PAW data can be deallocated... 
       PAW data deallocated on   20 nodes for type:  1
       PAW data deallocated on    8 nodes for type:  3

     total cpu time spent up to now is     1422.3 secs

     Self-consistent Calculation

     iteration #  1     ecut=   100.00 Ry     beta= 0.40
     Davidson diagonalization with overlap
     ethr =  1.00E-02,  avg # of iterations =  2.9

     negative rho (up, down):  0.000E+00 1.428E-04

     total cpu time spent up to now is     5257.7 secs

     total energy              =   -2123.67791383 Ry
     estimated scf accuracy    <       7.14751138 Ry

     total magnetization       =    19.00 Bohr mag/cell
     absolute magnetization    =    19.00 Bohr mag/cell

     iteration #  2     ecut=   100.00 Ry     beta= 0.40
     Davidson diagonalization with overlap
     ethr =  3.78E-03,  avg # of iterations =  2.0

     negative rho (up, down):  0.000E+00 8.704E-05

     total cpu time spent up to now is     8969.1 secs

     total energy              =   -2120.82219580 Ry
     estimated scf accuracy    <      36.13748758 Ry

     total magnetization       =     6.99 Bohr mag/cell
     absolute magnetization    =     8.64 Bohr mag/cell

     iteration #  3     ecut=   100.00 Ry     beta= 0.40
     Davidson diagonalization with overlap
     ethr =  3.78E-03,  avg # of iterations =  2.0

     negative rho (up, down):  0.000E+00 8.091E-05

     total cpu time spent up to now is    12131.7 secs

     total energy              =   -2124.46882650 Ry
     estimated scf accuracy    <      30.36789842 Ry

     total magnetization       =    11.00 Bohr mag/cell
     absolute magnetization    =    12.33 Bohr mag/cell

     iteration #  4     ecut=   100.00 Ry     beta= 0.40
     Davidson diagonalization with overlap
     ethr =  3.78E-03,  avg # of iterations =  1.5

     negative rho (up, down):  0.000E+00 1.605E-04

     total cpu time spent up to now is    15086.6 secs

     total energy              =   -2125.79839555 Ry
     estimated scf accuracy    <       4.13669775 Ry

     total magnetization       =    17.41 Bohr mag/cell
     absolute magnetization    =    17.45 Bohr mag/cell

     iteration #  5     ecut=   100.00 Ry     beta= 0.40
     Davidson diagonalization with overlap
     ethr =  2.19E-03,  avg # of iterations =  1.5

     negative rho (up, down):  0.000E+00 2.019E-04

     total cpu time spent up to now is    18050.8 secs

     total energy              =   -2125.92155333 Ry
     estimated scf accuracy    <       1.45149485 Ry

     total magnetization       =    19.00 Bohr mag/cell
     absolute magnetization    =    19.00 Bohr mag/cell

     iteration #  6     ecut=   100.00 Ry     beta= 0.40
     Davidson diagonalization with overlap
     ethr =  7.68E-04,  avg # of iterations =  1.4

     negative rho (up, down):  0.000E+00 2.946E-04

     total cpu time spent up to now is    20983.3 secs

     total energy              =   -2125.97984501 Ry
     estimated scf accuracy    <       1.15925463 Ry

     total magnetization       =    19.00 Bohr mag/cell
     absolute magnetization    =    19.00 Bohr mag/cell

     iteration #  7     ecut=   100.00 Ry     beta= 0.40
     Davidson diagonalization with overlap
     ethr =  6.13E-04,  avg # of iterations =  1.0

     negative rho (up, down):  0.000E+00 3.325E-04

     total cpu time spent up to now is    23851.3 secs

     total energy              =   -2125.95353499 Ry
     estimated scf accuracy    <       0.68903620 Ry

     total magnetization       =    19.00 Bohr mag/cell
     absolute magnetization    =    19.01 Bohr mag/cell

     iteration #  8     ecut=   100.00 Ry     beta= 0.40
     Davidson diagonalization with overlap
     ethr =  3.65E-04,  avg # of iterations =  1.0

     negative rho (up, down):  0.000E+00 4.117E-04

     total cpu time spent up to now is    26735.3 secs

     total energy              =   -2125.94108847 Ry
     estimated scf accuracy    <       0.89928770 Ry

     total magnetization       =    19.00 Bohr mag/cell
     absolute magnetization    =    19.01 Bohr mag/cell

     iteration #  9     ecut=   100.00 Ry     beta= 0.40
     Davidson diagonalization with overlap
     ethr =  3.65E-04,  avg # of iterations =  1.0

     negative rho (up, down):  0.000E+00 6.345E-04

     total cpu time spent up to now is    29614.2 secs

     total energy              =   -2125.96560420 Ry
     estimated scf accuracy    <       0.47626866 Ry

     total magnetization       =    19.00 Bohr mag/cell
     absolute magnetization    =    19.01 Bohr mag/cell

     iteration # 10     ecut=   100.00 Ry     beta= 0.40
     Davidson diagonalization with overlap
     ethr =  2.52E-04,  avg # of iterations =  1.3

     negative rho (up, down):  0.000E+00 7.508E-04

     total cpu time spent up to now is    32526.4 secs

     total energy              =   -2125.95263833 Ry
     estimated scf accuracy    <       0.58402714 Ry

     total magnetization       =    19.00 Bohr mag/cell
     absolute magnetization    =    19.02 Bohr mag/cell

     iteration # 11     ecut=   100.00 Ry     beta= 0.40
     Davidson diagonalization with overlap
     ethr =  2.52E-04,  avg # of iterations =  1.4

     negative rho (up, down):  0.000E+00 8.090E-04

     total cpu time spent up to now is    35466.7 secs

     total energy              =   -2125.97336008 Ry
     estimated scf accuracy    <       0.31196677 Ry

     total magnetization       =    19.00 Bohr mag/cell
     absolute magnetization    =    19.03 Bohr mag/cell

     iteration # 12     ecut=   100.00 Ry     beta= 0.40
     Davidson diagonalization with overlap
     ethr =  1.65E-04,  avg # of iterations =  1.5

     negative rho (up, down):  0.000E+00 8.738E-04

     total cpu time spent up to now is    38426.3 secs

     total energy              =   -2125.97638677 Ry
     estimated scf accuracy    <       0.07052451 Ry

     total magnetization       =    19.00 Bohr mag/cell
     absolute magnetization    =    19.03 Bohr mag/cell

     iteration # 13     ecut=   100.00 Ry     beta= 0.40
     Davidson diagonalization with overlap
     c_bands:  1 eigenvalues not converged
     c_bands:  1 eigenvalues not converged
     c_bands:  1 eigenvalues not converged
     c_bands:  1 eigenvalues not converged
     c_bands:  1 eigenvalues not converged
     c_bands:  1 eigenvalues not converged
     c_bands:  1 eigenvalues not converged
     c_bands:  1 eigenvalues not converged
     c_bands:  1 eigenvalues not converged
     c_bands:  1 eigenvalues not converged
     c_bands:  1 eigenvalues not converged
     c_bands:  1 eigenvalues not converged
     c_bands:  1 eigenvalues not converged
     c_bands:  1 eigenvalues not converged
     c_bands:  1 eigenvalues not converged
     c_bands:  2 eigenvalues not converged
     c_bands:  1 eigenvalues not converged
     c_bands:  1 eigenvalues not converged
     c_bands:  1 eigenvalues not converged
     c_bands:  1 eigenvalues not converged
     c_bands:  1 eigenvalues not converged
     c_bands:  1 eigenvalues not converged
     c_bands:  1 eigenvalues not converged
     c_bands:  3 eigenvalues not converged
     c_bands:  1 eigenvalues not converged
     c_bands:  1 eigenvalues not converged
     c_bands:  1 eigenvalues not converged
     c_bands:  1 eigenvalues not converged
     c_bands:  1 eigenvalues not converged
     c_bands:  2 eigenvalues not converged
     c_bands:  1 eigenvalues not converged
     c_bands:  1 eigenvalues not converged
     ethr =  3.73E-05,  avg # of iterations = 14.9

     negative rho (up, down):  0.000E+00 8.959E-04

     total cpu time spent up to now is    42981.3 secs

     total energy              =   -2125.97775480 Ry
     estimated scf accuracy    <       0.03217927 Ry

     total magnetization       =    19.00 Bohr mag/cell
     absolute magnetization    =    19.04 Bohr mag/cell

     iteration # 14     ecut=   100.00 Ry     beta= 0.40
     Davidson diagonalization with overlap
     c_bands:  1 eigenvalues not converged
     c_bands:  1 eigenvalues not converged
     c_bands:  1 eigenvalues not converged
     c_bands:  1 eigenvalues not converged
     ethr =  1.70E-05,  avg # of iterations =  3.3

     negative rho (up, down):  0.000E+00 8.883E-04

     total cpu time spent up to now is    46154.1 secs

     total energy              =   -2125.97801539 Ry
     estimated scf accuracy    <       0.03087973 Ry

     total magnetization       =    19.00 Bohr mag/cell
     absolute magnetization    =    19.04 Bohr mag/cell

     iteration # 15     ecut=   100.00 Ry     beta= 0.40
     Davidson diagonalization with overlap
     ethr =  1.63E-05,  avg # of iterations =  1.1

     negative rho (up, down):  0.000E+00 8.805E-04

     total cpu time spent up to now is    49047.1 secs

     total energy              =   -2125.97819428 Ry
     estimated scf accuracy    <       0.01142000 Ry

     total magnetization       =    19.00 Bohr mag/cell
     absolute magnetization    =    19.05 Bohr mag/cell

     iteration # 16     ecut=   100.00 Ry     beta= 0.40
     Davidson diagonalization with overlap
     c_bands:  1 eigenvalues not converged
     c_bands:  1 eigenvalues not converged
     c_bands:  1 eigenvalues not converged
     c_bands:  1 eigenvalues not converged
     c_bands:  1 eigenvalues not converged
     c_bands:  2 eigenvalues not converged
     ethr =  6.04E-06,  avg # of iterations =  3.4

     negative rho (up, down):  0.000E+00 8.748E-04

     total cpu time spent up to now is    52215.0 secs

     total energy              =   -2125.97827215 Ry
     estimated scf accuracy    <       0.00733634 Ry

     total magnetization       =    19.00 Bohr mag/cell
     absolute magnetization    =    19.05 Bohr mag/cell

     iteration # 17     ecut=   100.00 Ry     beta= 0.40
     Davidson diagonalization with overlap
     c_bands:  1 eigenvalues not converged
     c_bands:  1 eigenvalues not converged
     c_bands:  1 eigenvalues not converged
     c_bands:  1 eigenvalues not converged
     c_bands:  1 eigenvalues not converged
     c_bands:  1 eigenvalues not converged
     ethr =  3.88E-06,  avg # of iterations =  3.3

     negative rho (up, down):  0.000E+00 8.763E-04

     total cpu time spent up to now is    55375.1 secs

     total energy              =   -2125.97843077 Ry
     estimated scf accuracy    <       0.00175852 Ry

     total magnetization       =    19.00 Bohr mag/cell
     absolute magnetization    =    19.05 Bohr mag/cell

     iteration # 18     ecut=   100.00 Ry     beta= 0.40
     Davidson diagonalization with overlap
     c_bands:  1 eigenvalues not converged
     c_bands:  1 eigenvalues not converged
     c_bands:  1 eigenvalues not converged
     c_bands:  1 eigenvalues not converged
     c_bands:  1 eigenvalues not converged
     c_bands:  1 eigenvalues not converged
     c_bands:  1 eigenvalues not converged
     c_bands:  1 eigenvalues not converged
     ethr =  9.30E-07,  avg # of iterations =  7.2

     negative rho (up, down):  0.000E+00 8.671E-04

     total cpu time spent up to now is    59029.5 secs

     total energy              =   -2125.97850570 Ry
     estimated scf accuracy    <       0.00092358 Ry

     total magnetization       =    19.00 Bohr mag/cell
     absolute magnetization    =    19.05 Bohr mag/cell

     iteration # 19     ecut=   100.00 Ry     beta= 0.40
     Davidson diagonalization with overlap
     c_bands:  2 eigenvalues not converged
     c_bands:  2 eigenvalues not converged
     ethr =  4.89E-07,  avg # of iterations =  2.4

     negative rho (up, down):  0.000E+00 8.673E-04

     total cpu time spent up to now is    62098.8 secs

     total energy              =   -2125.97857357 Ry
     estimated scf accuracy    <       0.00026383 Ry

     total magnetization       =    19.00 Bohr mag/cell
     absolute magnetization    =    19.05 Bohr mag/cell

     iteration # 20     ecut=   100.00 Ry     beta= 0.40
     Davidson diagonalization with overlap
     c_bands:  2 eigenvalues not converged
     ethr =  1.40E-07,  avg # of iterations =  4.6

     negative rho (up, down):  0.000E+00 8.640E-04

     total cpu time spent up to now is    65887.1 secs

     total energy              =   -2125.97863105 Ry
     estimated scf accuracy    <       0.00002495 Ry

     total magnetization       =    19.00 Bohr mag/cell
     absolute magnetization    =    19.05 Bohr mag/cell

     iteration # 21     ecut=   100.00 Ry     beta= 0.40
     Davidson diagonalization with overlap
     c_bands:  1 eigenvalues not converged
     ethr =  1.32E-08,  avg # of iterations =  3.9

     negative rho (up, down):  0.000E+00 8.619E-04

     total cpu time spent up to now is    70491.9 secs

     total energy              =   -2125.97864177 Ry
     estimated scf accuracy    <       0.00001851 Ry

     total magnetization       =    19.00 Bohr mag/cell
     absolute magnetization    =    19.05 Bohr mag/cell

     iteration # 22     ecut=   100.00 Ry     beta= 0.40
     Davidson diagonalization with overlap
     ethr =  9.79E-09,  avg # of iterations =  1.0

     negative rho (up, down):  0.000E+00 8.579E-04

     total cpu time spent up to now is    73377.0 secs

     total energy              =   -2125.97864239 Ry
     estimated scf accuracy    <       0.00000301 Ry

     total magnetization       =    19.00 Bohr mag/cell
     absolute magnetization    =    19.05 Bohr mag/cell

     iteration # 23     ecut=   100.00 Ry     beta= 0.40
     Davidson diagonalization with overlap
     ethr =  1.59E-09,  avg # of iterations =  2.0

     negative rho (up, down):  0.000E+00 8.581E-04

     total cpu time spent up to now is    76526.0 secs

     total energy              =   -2125.97864306 Ry
     estimated scf accuracy    <       0.00000694 Ry

     total magnetization       =    19.00 Bohr mag/cell
     absolute magnetization    =    19.05 Bohr mag/cell

     iteration # 24     ecut=   100.00 Ry     beta= 0.40
     Davidson diagonalization with overlap
     ethr =  1.59E-09,  avg # of iterations =  1.1

     negative rho (up, down):  0.000E+00 8.580E-04

     total cpu time spent up to now is    79421.4 secs

     total energy              =   -2125.97864325 Ry
     estimated scf accuracy    <       0.00000832 Ry

     total magnetization       =    19.00 Bohr mag/cell
     absolute magnetization    =    19.05 Bohr mag/cell

     iteration # 25     ecut=   100.00 Ry     beta= 0.40
     Davidson diagonalization with overlap
     ethr =  1.59E-09,  avg # of iterations =  1.0

     negative rho (up, down):  0.000E+00 8.593E-04

     total cpu time spent up to now is    82310.8 secs

     total energy              =   -2125.97864353 Ry
     estimated scf accuracy    <       0.00000098 Ry

     total magnetization       =    19.00 Bohr mag/cell
     absolute magnetization    =    19.05 Bohr mag/cell

     iteration # 26     ecut=   100.00 Ry     beta= 0.40
     Davidson diagonalization with overlap
     ethr =  5.17E-10,  avg # of iterations =  1.6

     negative rho (up, down):  0.000E+00 8.591E-04

     total cpu time spent up to now is    85286.8 secs

     total energy              =   -2125.97864360 Ry
     estimated scf accuracy    <       0.00000026 Ry

     total magnetization       =    19.00 Bohr mag/cell
     absolute magnetization    =    19.05 Bohr mag/cell

     iteration # 27     ecut=   100.00 Ry     beta= 0.40
     Davidson diagonalization with overlap
     ethr =  1.38E-10,  avg # of iterations =  2.4

     negative rho (up, down):  0.000E+00 8.595E-04

     total cpu time spent up to now is    88491.4 secs

     total energy              =   -2125.97864365 Ry
     estimated scf accuracy    <       0.00000009 Ry

     total magnetization       =    19.00 Bohr mag/cell
     absolute magnetization    =    19.05 Bohr mag/cell

     iteration # 28     ecut=   100.00 Ry     beta= 0.40
     Davidson diagonalization with overlap
     ethr =  4.60E-11,  avg # of iterations =  3.2

     negative rho (up, down):  0.000E+00 8.595E-04

     total cpu time spent up to now is    92153.1 secs

     total energy              =   -2125.97864370 Ry
     estimated scf accuracy    <       0.00000002 Ry

     total magnetization       =    19.00 Bohr mag/cell
     absolute magnetization    =    19.05 Bohr mag/cell

     iteration # 29     ecut=   100.00 Ry     beta= 0.40
     Davidson diagonalization with overlap
     ethr =  1.03E-11,  avg # of iterations =  3.5

     negative rho (up, down):  0.000E+00 8.597E-04

     total cpu time spent up to now is    95650.1 secs

     total energy              =   -2125.97864370 Ry
     estimated scf accuracy    <       0.00000013 Ry

     total magnetization       =    19.00 Bohr mag/cell
     absolute magnetization    =    19.05 Bohr mag/cell

     iteration # 30     ecut=   100.00 Ry     beta= 0.40
     Davidson diagonalization with overlap
     ethr =  1.03E-11,  avg # of iterations =  2.0

     negative rho (up, down):  0.000E+00 8.597E-04

     total cpu time spent up to now is    98778.5 secs

     total energy              =   -2125.97864371 Ry
     estimated scf accuracy    <       0.00000006 Ry

     total magnetization       =    19.00 Bohr mag/cell
     absolute magnetization    =    19.05 Bohr mag/cell

     iteration # 31     ecut=   100.00 Ry     beta= 0.40
     Davidson diagonalization with overlap
     ethr =  1.03E-11,  avg # of iterations =  2.0

     negative rho (up, down):  0.000E+00 8.597E-04

     total cpu time spent up to now is   101843.9 secs

     total energy              =   -2125.97864371 Ry
     estimated scf accuracy    <          3.1E-09 Ry

     total magnetization       =    19.00 Bohr mag/cell
     absolute magnetization    =    19.05 Bohr mag/cell

     iteration # 32     ecut=   100.00 Ry     beta= 0.40
     Davidson diagonalization with overlap
     ethr =  1.63E-12,  avg # of iterations =  2.5

     negative rho (up, down):  0.000E+00 8.597E-04

     total cpu time spent up to now is   105118.0 secs

     total energy              =   -2125.97864372 Ry
     estimated scf accuracy    <          3.3E-09 Ry

     total magnetization       =    19.00 Bohr mag/cell
     absolute magnetization    =    19.05 Bohr mag/cell

     iteration # 33     ecut=   100.00 Ry     beta= 0.40
     Davidson diagonalization with overlap
     ethr =  1.63E-12,  avg # of iterations =  2.0

     negative rho (up, down):  0.000E+00 8.596E-04

     total cpu time spent up to now is   108186.8 secs

     total energy              =   -2125.97864372 Ry
     estimated scf accuracy    <          8.6E-10 Ry

     total magnetization       =    19.00 Bohr mag/cell
     absolute magnetization    =    19.05 Bohr mag/cell

     iteration # 34     ecut=   100.00 Ry     beta= 0.40
     Davidson diagonalization with overlap
     ethr =  4.55E-13,  avg # of iterations =  2.9

     negative rho (up, down):  0.000E+00 8.596E-04

     total cpu time spent up to now is   111652.6 secs

     total energy              =   -2125.97864372 Ry
     estimated scf accuracy    <          6.6E-09 Ry

     total magnetization       =    19.00 Bohr mag/cell
     absolute magnetization    =    19.05 Bohr mag/cell

     iteration # 35     ecut=   100.00 Ry     beta= 0.40
     Davidson diagonalization with overlap
     ethr =  4.55E-13,  avg # of iterations =  2.0

     negative rho (up, down):  0.000E+00 8.596E-04

     total cpu time spent up to now is   114749.0 secs

     total energy              =   -2125.97864372 Ry
     estimated scf accuracy    <          2.1E-09 Ry

     total magnetization       =    19.00 Bohr mag/cell
     absolute magnetization    =    19.05 Bohr mag/cell

     iteration # 36     ecut=   100.00 Ry     beta= 0.40
     Davidson diagonalization with overlap
     ethr =  4.55E-13,  avg # of iterations =  1.4

     negative rho (up, down):  0.000E+00 8.596E-04

     total cpu time spent up to now is   117693.5 secs

     total energy              =   -2125.97864372 Ry
     estimated scf accuracy    <          4.2E-10 Ry

     total magnetization       =    19.00 Bohr mag/cell
     absolute magnetization    =    19.05 Bohr mag/cell

     iteration # 37     ecut=   100.00 Ry     beta= 0.40
     Davidson diagonalization with overlap
     ethr =  2.20E-13,  avg # of iterations =  2.0

     negative rho (up, down):  0.000E+00 8.596E-04

     total cpu time spent up to now is   120740.2 secs

     total energy              =   -2125.97864372 Ry
     estimated scf accuracy    <          2.6E-10 Ry

     total magnetization       =    19.00 Bohr mag/cell
     absolute magnetization    =    19.05 Bohr mag/cell

     iteration # 38     ecut=   100.00 Ry     beta= 0.40
     Davidson diagonalization with overlap
     ethr =  1.39E-13,  avg # of iterations =  1.0

     negative rho (up, down):  0.000E+00 8.596E-04

     Magnetic moment per site:
     atom:    1    charge:    7.9726    magn:    0.0014    constr:    0.0000
     atom:    2    charge:   13.0071    magn:    3.6916    constr:    0.0000
     atom:    3    charge:   13.0240    magn:    3.6337    constr:    0.0000
     atom:    4    charge:   13.0189    magn:    3.6523    constr:    0.0000
     atom:    5    charge:   13.0113    magn:    3.6745    constr:    0.0000
     atom:    6    charge:    0.8216    magn:    0.0098    constr:    0.0000
     atom:    7    charge:    0.8148    magn:    0.0103    constr:    0.0000
     atom:    8    charge:    0.8159    magn:    0.0080    constr:    0.0000
     atom:    9    charge:    0.8156    magn:    0.0101    constr:    0.0000
     atom:   10    charge:    4.2698    magn:    0.1064    constr:    0.0000
     atom:   11    charge:    4.2654    magn:    0.1084    constr:    0.0000
     atom:   12    charge:    4.2372    magn:    0.1547    constr:    0.0000
     atom:   13    charge:    4.2608    magn:    0.1116    constr:    0.0000
     atom:   14    charge:    4.2156    magn:    0.1291    constr:    0.0000
     atom:   15    charge:    4.2151    magn:    0.0908    constr:    0.0000
     atom:   16    charge:    4.2106    magn:    0.1219    constr:    0.0000
     atom:   17    charge:    4.2061    magn:    0.1048    constr:    0.0000
     atom:   18    charge:    4.2380    magn:    0.1298    constr:    0.0000
     atom:   19    charge:    4.2172    magn:    0.1429    constr:    0.0000
     atom:   20    charge:    4.2153    magn:    0.1224    constr:    0.0000
     atom:   21    charge:    4.2246    magn:    0.1582    constr:    0.0000
     atom:   22    charge:    4.2383    magn:    0.1266    constr:    0.0000
     atom:   23    charge:    4.2148    magn:    0.1410    constr:    0.0000
     atom:   24    charge:    4.2139    magn:    0.1171    constr:    0.0000
     atom:   25    charge:    4.2126    magn:    0.1510    constr:    0.0000

     total cpu time spent up to now is   123614.7 secs

     End of self-consistent calculation

 ------ SPIN UP ------------


          k = 0.0000 0.0000 0.0000 ( 40219 PWs)   bands (ev):

   -86.5130 -86.4276 -86.2651 -86.1330 -52.5806 -52.5393 -52.5064 -52.4798
   -52.4172 -52.3788 -52.3320 -52.3245 -52.2461 -52.0978 -52.0482 -51.9554
   -45.5912 -17.6060 -17.5511 -17.5391 -16.6625 -16.4976 -16.4402 -16.3270
   -14.5521 -14.4398 -14.4021 -14.2690 -14.2208 -14.1988 -14.1715 -14.1015
   -14.0724 -14.0169 -13.9863 -13.8717  -5.1792  -4.7766  -4.5790  -4.3983
    -2.9512  -2.8156  -2.5986  -2.4986  -2.1492  -2.0974  -1.9418  -1.9215
    -1.8623  -1.8156  -1.7103  -1.6075  -0.9549  -0.8565  -0.7105  -0.4950
    -0.4742  -0.4431  -0.2929  -0.2188  -0.1997  -0.1684  -0.0712  -0.0327
     0.1346   0.3973   0.4153   0.4657   0.5824   0.7112   0.8187   0.9070
     0.9972   1.0595   1.0696   1.1789   1.2750   1.3610   1.4330   1.4921
     1.5163   1.6766   1.7137   1.7555   1.9217   1.9645   2.1149   2.1591
     2.2896   2.3632   2.5032   2.5248   2.6078   2.6839   2.7382   2.8297
     2.9098   2.9225   3.0278   3.1034   3.1396   3.1790   3.4354   3.6960
     7.3148   9.2106   9.5618   9.9951  10.5814  11.0812  11.2682  11.5766
    11.7220  11.7331

     occupation numbers 
     1.0000   1.0000   1.0000   1.0000   1.0000   1.0000   1.0000   1.0000
     1.0000   1.0000   1.0000   1.0000   1.0000   1.0000   1.0000   1.0000
     1.0000   1.0000   1.0000   1.0000   1.0000   1.0000   1.0000   1.0000
     1.0000   1.0000   1.0000   1.0000   1.0000   1.0000   1.0000   1.0000
     1.0000   1.0000   1.0000   1.0000   1.0000   1.0000   1.0000   1.0000
     1.0000   1.0000   1.0000   1.0000   1.0000   1.0000   1.0000   1.0000
     1.0000   1.0000   1.0000   1.0000   1.0000   1.0000   1.0000   1.0000
     1.0000   1.0000   1.0000   1.0000   1.0000   1.0000   1.0000   1.0000
     1.0000   1.0000   1.0000   1.0000   1.0000   1.0000   1.0000   1.0000
     1.0000   1.0000   1.0000   1.0000   1.0000   1.0000   1.0000   1.0000
     1.0000   1.0000   1.0000   1.0000   1.0000   1.0000   1.0000   1.0000
     1.0000   1.0000   1.0000   1.0000   1.0000   1.0000   1.0000   1.0000
     1.0000   1.0000   1.0000   1.0000   1.0000   1.0000   1.0000   1.0000
     0.0000   0.0000   0.0000   0.0000   0.0000   0.0000   0.0000   0.0000
     0.0000   0.0000

          k = 0.0000 0.0000 0.2454 ( 40205 PWs)   bands (ev):

   -86.5130 -86.4276 -86.2651 -86.1330 -52.5806 -52.5393 -52.5064 -52.4798
   -52.4172 -52.3788 -52.3320 -52.3245 -52.2461 -52.0978 -52.0482 -51.9554
   -45.5912 -17.6068 -17.5521 -17.5392 -16.6483 -16.4900 -16.4306 -16.3225
   -14.5702 -14.4441 -14.4219 -14.2842 -14.2352 -14.1921 -14.1631 -14.1054
   -14.0702 -14.0164 -13.9839 -13.8741  -5.1502  -4.7620  -4.5738  -4.3875
    -2.9358  -2.8053  -2.6051  -2.4685  -2.1511  -2.0933  -1.9537  -1.9166
    -1.8517  -1.8023  -1.7409  -1.5817  -0.9376  -0.8406  -0.7154  -0.5109
    -0.4851  -0.4086  -0.3184  -0.2632  -0.1813  -0.1390  -0.0808  -0.0213
     0.1119   0.3698   0.4003   0.4909   0.5836   0.6996   0.8274   0.9142
     0.9841   1.0468   1.0941   1.1740   1.2266   1.3459   1.4027   1.5088
     1.5276   1.6707   1.7185   1.7686   1.8912   1.9314   2.1149   2.1714
     2.2710   2.3808   2.4716   2.5348   2.5768   2.6798   2.7508   2.8055
     2.9107   2.9408   3.0134   3.1033   3.1417   3.1840   3.4376   3.6911
     7.4536   9.2731   9.5984  10.0255  10.6028  11.0546  11.2130  11.5556
    11.6363  11.7265

     occupation numbers 
     1.0000   1.0000   1.0000   1.0000   1.0000   1.0000   1.0000   1.0000
     1.0000   1.0000   1.0000   1.0000   1.0000   1.0000   1.0000   1.0000
     1.0000   1.0000   1.0000   1.0000   1.0000   1.0000   1.0000   1.0000
     1.0000   1.0000   1.0000   1.0000   1.0000   1.0000   1.0000   1.0000
     1.0000   1.0000   1.0000   1.0000   1.0000   1.0000   1.0000   1.0000
     1.0000   1.0000   1.0000   1.0000   1.0000   1.0000   1.0000   1.0000
     1.0000   1.0000   1.0000   1.0000   1.0000   1.0000   1.0000   1.0000
     1.0000   1.0000   1.0000   1.0000   1.0000   1.0000   1.0000   1.0000
     1.0000   1.0000   1.0000   1.0000   1.0000   1.0000   1.0000   1.0000
     1.0000   1.0000   1.0000   1.0000   1.0000   1.0000   1.0000   1.0000
     1.0000   1.0000   1.0000   1.0000   1.0000   1.0000   1.0000   1.0000
     1.0000   1.0000   1.0000   1.0000   1.0000   1.0000   1.0000   1.0000
     1.0000   1.0000   1.0000   1.0000   1.0000   1.0000   1.0000   1.0000
     0.0000   0.0000   0.0000   0.0000   0.0000   0.0000   0.0000   0.0000
     0.0000   0.0000

          k = 0.0000 0.0000 0.4908 ( 40238 PWs)   bands (ev):

   -86.5130 -86.4276 -86.2651 -86.1330 -52.5806 -52.5393 -52.5064 -52.4798
   -52.4172 -52.3788 -52.3320 -52.3245 -52.2461 -52.0978 -52.0482 -51.9554
   -45.5912 -17.6093 -17.5543 -17.5393 -16.6102 -16.4720 -16.4041 -16.3124
   -14.6152 -14.4780 -14.4503 -14.3277 -14.2595 -14.1738 -14.1503 -14.1105
   -14.0656 -14.0172 -13.9796 -13.8811  -5.0737  -4.7227  -4.5603  -4.3706
    -2.9038  -2.7769  -2.5827  -2.4271  -2.1600  -2.0881  -1.9663  -1.9109
    -1.8325  -1.7983  -1.7338  -1.5604  -0.9080  -0.7941  -0.6984  -0.5445
    -0.4845  -0.3849  -0.3488  -0.2677  -0.1908  -0.1144  -0.0775   0.0133
     0.0742   0.3295   0.3601   0.5030   0.5815   0.6821   0.7920   0.9163
     0.9610   0.9969   1.0907   1.1380   1.1895   1.3115   1.4000   1.4969
     1.5409   1.6534   1.7177   1.7303   1.8220   1.8808   2.1199   2.1717
     2.2559   2.3757   2.4554   2.5269   2.5804   2.6456   2.7714   2.7962
     2.9048   2.9650   3.0074   3.0950   3.1561   3.1813   3.4448   3.6800
     7.8241   9.4235   9.6831  10.1086  10.6546  10.8821  11.1487  11.4629
    11.5513  11.6752

     occupation numbers 
     1.0000   1.0000   1.0000   1.0000   1.0000   1.0000   1.0000   1.0000
     1.0000   1.0000   1.0000   1.0000   1.0000   1.0000   1.0000   1.0000
     1.0000   1.0000   1.0000   1.0000   1.0000   1.0000   1.0000   1.0000
     1.0000   1.0000   1.0000   1.0000   1.0000   1.0000   1.0000   1.0000
     1.0000   1.0000   1.0000   1.0000   1.0000   1.0000   1.0000   1.0000
     1.0000   1.0000   1.0000   1.0000   1.0000   1.0000   1.0000   1.0000
     1.0000   1.0000   1.0000   1.0000   1.0000   1.0000   1.0000   1.0000
     1.0000   1.0000   1.0000   1.0000   1.0000   1.0000   1.0000   1.0000
     1.0000   1.0000   1.0000   1.0000   1.0000   1.0000   1.0000   1.0000
     1.0000   1.0000   1.0000   1.0000   1.0000   1.0000   1.0000   1.0000
     1.0000   1.0000   1.0000   1.0000   1.0000   1.0000   1.0000   1.0000
     1.0000   1.0000   1.0000   1.0000   1.0000   1.0000   1.0000   1.0000
     1.0000   1.0000   1.0000   1.0000   1.0000   1.0000   1.0000   1.0000
     0.0000   0.0000   0.0000   0.0000   0.0000   0.0000   0.0000   0.0000
     0.0000   0.0000

          k = 0.0000 0.0000 0.7363 ( 40234 PWs)   bands (ev):

   -86.5130 -86.4276 -86.2651 -86.1330 -52.5806 -52.5393 -52.5064 -52.4798
   -52.4173 -52.3788 -52.3320 -52.3245 -52.2461 -52.0978 -52.0482 -51.9554
   -45.5912 -17.6128 -17.5563 -17.5392 -16.5612 -16.4556 -16.3680 -16.3053
   -14.6650 -14.5353 -14.4673 -14.3805 -14.2787 -14.1547 -14.1422 -14.1054
   -14.0611 -14.0221 -13.9772 -13.8909  -4.9787  -4.6725  -4.5457  -4.3712
    -2.8813  -2.7364  -2.5225  -2.4092  -2.1757  -2.0835  -1.9864  -1.9202
    -1.8108  -1.7620  -1.6892  -1.5733  -0.9021  -0.7271  -0.6182  -0.5735
    -0.4706  -0.3923  -0.3321  -0.2456  -0.1731  -0.0848  -0.0518   0.0143
     0.0710   0.2611   0.3275   0.4727   0.5591   0.6331   0.7185   0.8038
     0.8802   0.9561   1.1123   1.1568   1.2014   1.2724   1.3362   1.4688
     1.5145   1.5975   1.6294   1.7378   1.7809   1.9164   2.1035   2.1400
     2.2556   2.3809   2.4320   2.4988   2.6184   2.6601   2.7793   2.8303
     2.9047   2.9624   3.0422   3.0854   3.1564   3.1777   3.4542   3.6685
     8.3294   9.5110   9.8084  10.2070  10.4902  10.8244  11.1179  11.3458
    11.4693  11.5462

     occupation numbers 
     1.0000   1.0000   1.0000   1.0000   1.0000   1.0000   1.0000   1.0000
     1.0000   1.0000   1.0000   1.0000   1.0000   1.0000   1.0000   1.0000
     1.0000   1.0000   1.0000   1.0000   1.0000   1.0000   1.0000   1.0000
     1.0000   1.0000   1.0000   1.0000   1.0000   1.0000   1.0000   1.0000
     1.0000   1.0000   1.0000   1.0000   1.0000   1.0000   1.0000   1.0000
     1.0000   1.0000   1.0000   1.0000   1.0000   1.0000   1.0000   1.0000
     1.0000   1.0000   1.0000   1.0000   1.0000   1.0000   1.0000   1.0000
     1.0000   1.0000   1.0000   1.0000   1.0000   1.0000   1.0000   1.0000
     1.0000   1.0000   1.0000   1.0000   1.0000   1.0000   1.0000   1.0000
     1.0000   1.0000   1.0000   1.0000   1.0000   1.0000   1.0000   1.0000
     1.0000   1.0000   1.0000   1.0000   1.0000   1.0000   1.0000   1.0000
     1.0000   1.0000   1.0000   1.0000   1.0000   1.0000   1.0000   1.0000
     1.0000   1.0000   1.0000   1.0000   1.0000   1.0000   1.0000   1.0000
     0.0000   0.0000   0.0000   0.0000   0.0000   0.0000   0.0000   0.0000
     0.0000   0.0000

          k = 0.0000 0.0000 0.9817 ( 40292 PWs)   bands (ev):

   -86.5130 -86.4276 -86.2651 -86.1330 -52.5806 -52.5393 -52.5064 -52.4798
   -52.4173 -52.3788 -52.3320 -52.3245 -52.2461 -52.0978 -52.0482 -51.9554
   -45.5912 -17.6154 -17.5571 -17.5391 -16.5224 -16.4502 -16.3341 -16.3102
   -14.6967 -14.5733 -14.4800 -14.4163 -14.2884 -14.1453 -14.1392 -14.0925
   -14.0573 -14.0295 -13.9771 -13.8984  -4.9096  -4.6362  -4.5350  -4.3877
    -2.8712  -2.7067  -2.4702  -2.4078  -2.1851  -2.0874  -2.0069  -1.9195
    -1.7758  -1.7305  -1.6753  -1.5920  -0.9049  -0.6708  -0.5912  -0.5385
    -0.4496  -0.3905  -0.2749  -0.1976  -0.1418  -0.0811  -0.0084   0.0141
     0.0900   0.1664   0.2458   0.4217   0.4950   0.5472   0.6945   0.7778
     0.8588   0.8954   1.1032   1.1667   1.1963   1.2390   1.2795   1.4109
     1.4893   1.5630   1.6390   1.7332   1.7833   1.9568   2.0682   2.1096
     2.2612   2.3669   2.4299   2.5066   2.6260   2.6944   2.7667   2.8484
     2.9214   2.9916   3.0422   3.0984   3.1533   3.1688   3.4606   3.6602
     8.8684   9.3223   9.9734  10.1747  10.3411  10.8484  11.1592  11.2821
    11.3878  11.4413

     occupation numbers 
     1.0000   1.0000   1.0000   1.0000   1.0000   1.0000   1.0000   1.0000
     1.0000   1.0000   1.0000   1.0000   1.0000   1.0000   1.0000   1.0000
     1.0000   1.0000   1.0000   1.0000   1.0000   1.0000   1.0000   1.0000
     1.0000   1.0000   1.0000   1.0000   1.0000   1.0000   1.0000   1.0000
     1.0000   1.0000   1.0000   1.0000   1.0000   1.0000   1.0000   1.0000
     1.0000   1.0000   1.0000   1.0000   1.0000   1.0000   1.0000   1.0000
     1.0000   1.0000   1.0000   1.0000   1.0000   1.0000   1.0000   1.0000
     1.0000   1.0000   1.0000   1.0000   1.0000   1.0000   1.0000   1.0000
     1.0000   1.0000   1.0000   1.0000   1.0000   1.0000   1.0000   1.0000
     1.0000   1.0000   1.0000   1.0000   1.0000   1.0000   1.0000   1.0000
     1.0000   1.0000   1.0000   1.0000   1.0000   1.0000   1.0000   1.0000
     1.0000   1.0000   1.0000   1.0000   1.0000   1.0000   1.0000   1.0000
     1.0000   1.0000   1.0000   1.0000   1.0000   1.0000   1.0000   1.0000
     0.0000   0.0000   0.0000   0.0000   0.0000   0.0000   0.0000   0.0000
     0.0000   0.0000

          k = 0.0000 0.2391 0.0000 ( 40223 PWs)   bands (ev):

   -86.5130 -86.4276 -86.2651 -86.1330 -52.5806 -52.5393 -52.5064 -52.4798
   -52.4172 -52.3788 -52.3320 -52.3245 -52.2461 -52.0978 -52.0482 -51.9554
   -45.5912 -17.6064 -17.5524 -17.5398 -16.6500 -16.4947 -16.4364 -16.3375
   -14.5523 -14.4410 -14.3997 -14.2711 -14.2442 -14.2103 -14.1669 -14.0885
   -14.0735 -14.0177 -13.9809 -13.8697  -5.1510  -4.7536  -4.5920  -4.4008
    -2.9259  -2.7819  -2.5998  -2.4858  -2.1569  -2.1011  -1.9395  -1.9101
    -1.8758  -1.7920  -1.7056  -1.6041  -0.9641  -0.8622  -0.7288  -0.5596
    -0.4843  -0.4171  -0.3501  -0.2913  -0.2121  -0.1285  -0.0533   0.0567
     0.1495   0.3730   0.3951   0.4773   0.5941   0.6990   0.7750   0.8824
     0.9497   1.0412   1.0645   1.1601   1.2636   1.3136   1.3885   1.5136
     1.5962   1.6581   1.7092   1.7709   1.8920   1.9738   2.0984   2.1895
     2.2780   2.3919   2.4311   2.5247   2.5970   2.6853   2.7588   2.8227
     2.9162   2.9326   3.0067   3.0811   3.1789   3.2667   3.4661   3.6989
     7.4626   9.2912   9.6416   9.8992  10.5844  11.0365  11.2736  11.5373
    11.6140  11.7120

     occupation numbers 
     1.0000   1.0000   1.0000   1.0000   1.0000   1.0000   1.0000   1.0000
     1.0000   1.0000   1.0000   1.0000   1.0000   1.0000   1.0000   1.0000
     1.0000   1.0000   1.0000   1.0000   1.0000   1.0000   1.0000   1.0000
     1.0000   1.0000   1.0000   1.0000   1.0000   1.0000   1.0000   1.0000
     1.0000   1.0000   1.0000   1.0000   1.0000   1.0000   1.0000   1.0000
     1.0000   1.0000   1.0000   1.0000   1.0000   1.0000   1.0000   1.0000
     1.0000   1.0000   1.0000   1.0000   1.0000   1.0000   1.0000   1.0000
     1.0000   1.0000   1.0000   1.0000   1.0000   1.0000   1.0000   1.0000
     1.0000   1.0000   1.0000   1.0000   1.0000   1.0000   1.0000   1.0000
     1.0000   1.0000   1.0000   1.0000   1.0000   1.0000   1.0000   1.0000
     1.0000   1.0000   1.0000   1.0000   1.0000   1.0000   1.0000   1.0000
     1.0000   1.0000   1.0000   1.0000   1.0000   1.0000   1.0000   1.0000
     1.0000   1.0000   1.0000   1.0000   1.0000   1.0000   1.0000   1.0000
     0.0000   0.0000   0.0000   0.0000   0.0000   0.0000   0.0000   0.0000
     0.0000   0.0000

          k = 0.0000 0.2391 0.2454 ( 40217 PWs)   bands (ev):

   -86.5130 -86.4276 -86.2651 -86.1330 -52.5806 -52.5393 -52.5064 -52.4798
   -52.4172 -52.3788 -52.3320 -52.3245 -52.2461 -52.0978 -52.0482 -51.9554
   -45.5912 -17.6066 -17.5539 -17.5398 -16.6391 -16.4860 -16.4283 -16.3287
   -14.5728 -14.4451 -14.4195 -14.2947 -14.2471 -14.2012 -14.1640 -14.0868
   -14.0717 -14.0226 -13.9770 -13.8723  -5.1290  -4.7415  -4.5809  -4.3815
    -2.9096  -2.7687  -2.6179  -2.4538  -2.1455  -2.0776  -1.9509  -1.9237
    -1.8579  -1.8140  -1.7389  -1.5610  -0.9467  -0.8490  -0.7288  -0.5505
    -0.4841  -0.4104  -0.3320  -0.2867  -0.2147  -0.1716  -0.0627   0.0709
     0.1111   0.3180   0.3604   0.5081   0.5784   0.6757   0.7675   0.8668
     0.9811   1.0587   1.0655   1.1865   1.2424   1.3606   1.3978   1.5012
     1.5872   1.6643   1.7063   1.7445   1.8406   1.9555   2.0982   2.1696
     2.2672   2.3649   2.4537   2.5211   2.6149   2.6494   2.7625   2.8015
     2.9152   2.9415   2.9975   3.1147   3.1654   3.2743   3.4728   3.6929
     7.5888   9.3669   9.6662   9.9402  10.6237  11.0051  11.1862  11.5202
    11.6457  11.6893

     occupation numbers 
     1.0000   1.0000   1.0000   1.0000   1.0000   1.0000   1.0000   1.0000
     1.0000   1.0000   1.0000   1.0000   1.0000   1.0000   1.0000   1.0000
     1.0000   1.0000   1.0000   1.0000   1.0000   1.0000   1.0000   1.0000
     1.0000   1.0000   1.0000   1.0000   1.0000   1.0000   1.0000   1.0000
     1.0000   1.0000   1.0000   1.0000   1.0000   1.0000   1.0000   1.0000
     1.0000   1.0000   1.0000   1.0000   1.0000   1.0000   1.0000   1.0000
     1.0000   1.0000   1.0000   1.0000   1.0000   1.0000   1.0000   1.0000
     1.0000   1.0000   1.0000   1.0000   1.0000   1.0000   1.0000   1.0000
     1.0000   1.0000   1.0000   1.0000   1.0000   1.0000   1.0000   1.0000
     1.0000   1.0000   1.0000   1.0000   1.0000   1.0000   1.0000   1.0000
     1.0000   1.0000   1.0000   1.0000   1.0000   1.0000   1.0000   1.0000
     1.0000   1.0000   1.0000   1.0000   1.0000   1.0000   1.0000   1.0000
     1.0000   1.0000   1.0000   1.0000   1.0000   1.0000   1.0000   1.0000
     0.0000   0.0000   0.0000   0.0000   0.0000   0.0000   0.0000   0.0000
     0.0000   0.0000

          k = 0.0000 0.2391 0.4908 ( 40204 PWs)   bands (ev):

   -86.5130 -86.4276 -86.2651 -86.1330 -52.5806 -52.5393 -52.5064 -52.4798
   -52.4172 -52.3788 -52.3320 -52.3245 -52.2461 -52.0978 -52.0482 -51.9554
   -45.5912 -17.6087 -17.5562 -17.5399 -16.6046 -16.4670 -16.4034 -16.3138
   -14.6168 -14.4731 -14.4578 -14.3428 -14.2606 -14.1835 -14.1553 -14.0913
   -14.0669 -14.0237 -13.9723 -13.8797  -5.0589  -4.7055  -4.5613  -4.3512
    -2.8809  -2.7541  -2.5879  -2.4151  -2.1474  -2.0393  -1.9917  -1.9111
    -1.8399  -1.8104  -1.7547  -1.5292  -0.9359  -0.8051  -0.7018  -0.5500
    -0.4865  -0.3969  -0.3297  -0.2995  -0.2344  -0.1619  -0.0565   0.0625
     0.0883   0.2540   0.3240   0.5274   0.5639   0.6505   0.7234   0.8631
     0.9683   1.0262   1.0908   1.1616   1.2258   1.3789   1.4031   1.4717
     1.5544   1.6552   1.6839   1.7197   1.7804   1.8664   2.1184   2.1579
     2.2499   2.3341   2.4182   2.5611   2.5821   2.6535   2.7641   2.8161
     2.9115   2.9257   3.0215   3.1352   3.1701   3.2701   3.4740   3.6857
     7.9381   9.5396   9.7276  10.0382  10.6700  10.9171  11.1050  11.3839
    11.5496  11.6585

     occupation numbers 
     1.0000   1.0000   1.0000   1.0000   1.0000   1.0000   1.0000   1.0000
     1.0000   1.0000   1.0000   1.0000   1.0000   1.0000   1.0000   1.0000
     1.0000   1.0000   1.0000   1.0000   1.0000   1.0000   1.0000   1.0000
     1.0000   1.0000   1.0000   1.0000   1.0000   1.0000   1.0000   1.0000
     1.0000   1.0000   1.0000   1.0000   1.0000   1.0000   1.0000   1.0000
     1.0000   1.0000   1.0000   1.0000   1.0000   1.0000   1.0000   1.0000
     1.0000   1.0000   1.0000   1.0000   1.0000   1.0000   1.0000   1.0000
     1.0000   1.0000   1.0000   1.0000   1.0000   1.0000   1.0000   1.0000
     1.0000   1.0000   1.0000   1.0000   1.0000   1.0000   1.0000   1.0000
     1.0000   1.0000   1.0000   1.0000   1.0000   1.0000   1.0000   1.0000
     1.0000   1.0000   1.0000   1.0000   1.0000   1.0000   1.0000   1.0000
     1.0000   1.0000   1.0000   1.0000   1.0000   1.0000   1.0000   1.0000
     1.0000   1.0000   1.0000   1.0000   1.0000   1.0000   1.0000   1.0000
     0.0000   0.0000   0.0000   0.0000   0.0000   0.0000   0.0000   0.0000
     0.0000   0.0000

          k = 0.0000 0.2391 0.7363 ( 40239 PWs)   bands (ev):

   -86.5130 -86.4276 -86.2651 -86.1330 -52.5806 -52.5393 -52.5064 -52.4798
   -52.4173 -52.3788 -52.3320 -52.3245 -52.2461 -52.0978 -52.0482 -51.9554
   -45.5912 -17.6121 -17.5580 -17.5400 -16.5581 -16.4497 -16.3689 -16.3027
   -14.6650 -14.5288 -14.4806 -14.3948 -14.2769 -14.1705 -14.1371 -14.0951
   -14.0611 -14.0265 -13.9699 -13.8898  -4.9673  -4.6571  -4.5465  -4.3374
    -2.8655  -2.7249  -2.5205  -2.3974  -2.1603  -2.0382  -2.0066  -1.9152
    -1.8276  -1.7669  -1.7161  -1.5401  -0.9372  -0.7605  -0.6285  -0.5575
    -0.4660  -0.4019  -0.3436  -0.2692  -0.2079  -0.1385  -0.0250   0.0294
     0.1166   0.1943   0.2974   0.4983   0.5509   0.5949   0.6815   0.8107
     0.9002   0.9723   1.0487   1.1484   1.2356   1.3010   1.3553   1.4665
     1.5072   1.5948   1.6560   1.7211   1.7720   1.8387   2.1057   2.1558
     2.2468   2.3280   2.3817   2.5422   2.5907   2.6762   2.7852   2.8613
     2.8893   2.9378   3.0541   3.1215   3.1869   3.2675   3.4732   3.6805
     8.4206   9.6582   9.8274  10.1451  10.5325  10.8314  11.1559  11.2828
    11.4243  11.5321

     occupation numbers 
     1.0000   1.0000   1.0000   1.0000   1.0000   1.0000   1.0000   1.0000
     1.0000   1.0000   1.0000   1.0000   1.0000   1.0000   1.0000   1.0000
     1.0000   1.0000   1.0000   1.0000   1.0000   1.0000   1.0000   1.0000
     1.0000   1.0000   1.0000   1.0000   1.0000   1.0000   1.0000   1.0000
     1.0000   1.0000   1.0000   1.0000   1.0000   1.0000   1.0000   1.0000
     1.0000   1.0000   1.0000   1.0000   1.0000   1.0000   1.0000   1.0000
     1.0000   1.0000   1.0000   1.0000   1.0000   1.0000   1.0000   1.0000
     1.0000   1.0000   1.0000   1.0000   1.0000   1.0000   1.0000   1.0000
     1.0000   1.0000   1.0000   1.0000   1.0000   1.0000   1.0000   1.0000
     1.0000   1.0000   1.0000   1.0000   1.0000   1.0000   1.0000   1.0000
     1.0000   1.0000   1.0000   1.0000   1.0000   1.0000   1.0000   1.0000
     1.0000   1.0000   1.0000   1.0000   1.0000   1.0000   1.0000   1.0000
     1.0000   1.0000   1.0000   1.0000   1.0000   1.0000   1.0000   1.0000
     0.0000   0.0000   0.0000   0.0000   0.0000   0.0000   0.0000   0.0000
     0.0000   0.0000

          k = 0.0000 0.2391 0.9817 ( 40255 PWs)   bands (ev):

   -86.5130 -86.4276 -86.2651 -86.1330 -52.5806 -52.5393 -52.5064 -52.4798
   -52.4173 -52.3788 -52.3320 -52.3245 -52.2461 -52.0978 -52.0482 -51.9554
   -45.5912 -17.6150 -17.5585 -17.5400 -16.5190 -16.4441 -16.3373 -16.3058
   -14.6959 -14.5682 -14.4916 -14.4271 -14.2908 -14.1695 -14.1174 -14.0944
   -14.0567 -14.0306 -13.9703 -13.8974  -4.8928  -4.6170  -4.5407  -4.3569
    -2.8564  -2.6974  -2.4678  -2.3947  -2.1713  -2.0767  -1.9997  -1.9233
    -1.7892  -1.7293  -1.6734  -1.5776  -0.9415  -0.7221  -0.6022  -0.5406
    -0.4539  -0.4000  -0.3175  -0.2225  -0.1428  -0.1090  -0.0228   0.0452
     0.1271   0.1643   0.2376   0.4425   0.5084   0.5361   0.6816   0.7591
     0.8470   0.9148   1.0593   1.0990   1.1912   1.2772   1.2887   1.4150
[...]
     atom   23 type  3   force =    -0.02573229   -0.03761002   -0.03090317
     atom   24 type  3   force =     0.00040678    0.07830526    0.03481216
     atom   25 type  3   force =     0.00771817   -0.04970560    0.01194569
     The non-local contrib.  to forces
     atom    1 type  2   force =    -0.07617872   -0.00801030   -0.02416079
     atom    2 type  1   force =     0.09139647   -0.14040858   -0.06952004
     atom    3 type  1   force =    -0.02724894   -0.15117423    0.14110310
     atom    4 type  1   force =    -0.07595224    0.11366763    0.17722026
     atom    5 type  1   force =     0.03024119    0.14889720   -0.08062932
     atom    6 type  4   force =    -0.07447359    0.03381443   -0.01485870
     atom    7 type  4   force =     0.01806863    0.01961423   -0.11003700
     atom    8 type  4   force =     0.03687414   -0.02820046   -0.00342858
     atom    9 type  4   force =    -0.03101791   -0.01194988    0.10093704
     atom   10 type  3   force =    -0.38957967   -0.11474140   -1.22128872
     atom   11 type  3   force =    -0.02566070    0.19532474   -1.47216508
     atom   12 type  3   force =     0.51420656    0.06873930    1.17486326
     atom   13 type  3   force =    -0.06874400   -0.23162991    1.45507467
     atom   14 type  3   force =     1.33514623   -0.17432535   -0.55502765
     atom   15 type  3   force =    -1.23159629    0.70580557   -0.08899658
     atom   16 type  3   force =    -1.38934778    0.12557864    0.57937338
     atom   17 type  3   force =     1.19650935   -0.71347283    0.20812426
     atom   18 type  3   force =    -0.43774686   -1.41344876    0.60560222
     atom   19 type  3   force =     0.54874062    0.83071371    0.91417106
     atom   20 type  3   force =    -0.10070217   -1.44926960   -0.95119184
     atom   21 type  3   force =    -0.09232758    1.09547439   -0.58514140
     atom   22 type  3   force =     0.37650901    1.32778637   -0.65872960
     atom   23 type  3   force =    -0.60800960   -0.76719238   -0.96606944
     atom   24 type  3   force =     0.13446284    1.46179207    1.00444481
     atom   25 type  3   force =     0.27411197   -1.05191769    0.59840151
     The ionic contribution  to forces
     atom    1 type  2   force =    -1.72883422    3.90224493    1.83466162
     atom    2 type  1   force =    14.01796997   -0.02667294   -0.95946746
     atom    3 type  1   force =     2.21464811   -6.21857416   -2.59384102
     atom    4 type  1   force =   -11.11868109   -4.02711016    2.73045867
     atom    5 type  1   force =    -5.79432809    7.51551713    0.77460406
     atom    6 type  4   force =    -0.93887322    0.88895804   -1.04018460
     atom    7 type  4   force =     4.50570987   -0.08790917    0.36636188
     atom    8 type  4   force =     2.17868390   -2.35172367    0.95516446
     atom    9 type  4   force =    -4.71057762    0.79535833   -0.62225698
     atom   10 type  3   force =    -0.65000476    1.42291444   -0.69597526
     atom   11 type  3   force =     8.09317016   -2.15088214    2.22248625
     atom   12 type  3   force =     1.76066488   -5.91795904   -1.43790809
     atom   13 type  3   force =    -8.13795679    3.43499152   -2.22072656
     atom   14 type  3   force =     1.71721749    0.55274332    6.04770475
     atom   15 type  3   force =    -0.51375568   -3.63981931    2.16154458
     atom   16 type  3   force =    -1.11683041   -0.62238739   -6.44788195
     atom   17 type  3   force =     0.13438635    5.88184812   -3.21703255
     atom   18 type  3   force =    -1.03352671    7.74636758    3.44677025
     atom   19 type  3   force =     4.83533516   -1.14506588   -3.59863384
     atom   20 type  3   force =     3.33877026    1.77734399    7.86412813
     atom   21 type  3   force =    -9.53156575   -1.26993077    0.06961802
     atom   22 type  3   force =     2.40983727   -5.97756229   -1.24667800
     atom   23 type  3   force =    -3.76212410    1.47157830    4.04423022
     atom   24 type  3   force =    -3.92669479   -3.73605855   -7.82299910
     atom   25 type  3   force =     7.75735982    1.78178977   -0.61414748
     The local contribution  to forces
     atom    1 type  2   force =     1.80434308   -3.89241338   -1.80377613
     atom    2 type  1   force =   -14.10354363    0.17609756    1.03387362
     atom    3 type  1   force =    -2.19338202    6.37887529    2.45126549
     atom    4 type  1   force =    11.18871368    3.90629835   -2.91886600
     atom    5 type  1   force =     5.77277592   -7.68329811   -0.69338882
     atom    6 type  4   force =     0.99447083   -0.94221204    1.03629583
     atom    7 type  4   force =    -4.49228841    0.06598657   -0.30340164
     atom    8 type  4   force =    -2.18745908    2.38285530   -0.94101888
     atom    9 type  4   force =     4.70636131   -0.78007200    0.56712226
     atom   10 type  3   force =     1.02986253   -1.30923833    1.90376215
     atom   11 type  3   force =    -8.07687366    1.96227737   -0.76659754
     atom   12 type  3   force =    -2.26358971    5.86289847    0.28633738
     atom   13 type  3   force =     8.21392666   -3.21191075    0.78025112
     atom   14 type  3   force =    -2.96239921   -0.38860625   -5.51578843
     atom   15 type  3   force =     1.65535215    2.96986608   -2.06624826
     atom   16 type  3   force =     2.41268687    0.50454445    5.89101492
     atom   17 type  3   force =    -1.24932763   -5.20061865    3.00980203
     atom   18 type  3   force =     1.44813286   -6.39383482   -4.02758598
     atom   19 type  3   force =    -5.35655579    0.36023379    2.71983527
     atom   20 type  3   force =    -3.24200589   -0.41458995   -6.95768827
     atom   21 type  3   force =     9.62259597    0.23537045    0.49761640
     atom   22 type  3   force =    -2.76332533    4.70841818    1.88028301
     atom   23 type  3   force =     4.33858901   -0.74896588   -3.11845683
     atom   24 type  3   force =     3.79417247    2.36659541    6.86342553
     atom   25 type  3   force =    -8.02114285   -0.78953216    0.03349877
     The core correction contribution to forces
     atom    1 type  2   force =     0.00000000    0.00000000    0.00000000
     atom    2 type  1   force =    -0.00254117    0.00147001    0.00032828
     atom    3 type  1   force =     0.00099259    0.00126285   -0.00131576
     atom    4 type  1   force =     0.00254196   -0.00044224   -0.00081626
     atom    5 type  1   force =    -0.00151345    0.00066929   -0.00031629
     atom    6 type  4   force =     0.00787886   -0.00106663    0.00292807
     atom    7 type  4   force =    -0.00269733   -0.00169867    0.00950365
     atom    8 type  4   force =    -0.00516900    0.00149471   -0.00076662
     atom    9 type  4   force =     0.00360042    0.00064574   -0.00841046
     atom   10 type  3   force =     0.00293186    0.00096227    0.01072776
     atom   11 type  3   force =     0.00106875   -0.00199597    0.01293719
     atom   12 type  3   force =    -0.00435399   -0.00057036   -0.01056578
     atom   13 type  3   force =    -0.00020048    0.00244999   -0.01277465
     atom   14 type  3   force =    -0.01274967    0.00178407    0.00585652
     atom   15 type  3   force =     0.01167873   -0.00720879    0.00126630
     atom   16 type  3   force =     0.01329423   -0.00127987   -0.00611550
     atom   17 type  3   force =    -0.01143075    0.00742249   -0.00236514
     atom   18 type  3   force =     0.00373020    0.01380092   -0.00537328
     atom   19 type  3   force =    -0.00524991   -0.00760757   -0.00889156
     atom   20 type  3   force =     0.00114776    0.01389555    0.00944431
     atom   21 type  3   force =     0.00074530   -0.01039173    0.00564693
     atom   22 type  3   force =    -0.00314622   -0.01298338    0.00590589
     atom   23 type  3   force =     0.00581387    0.00696595    0.00939416
     atom   24 type  3   force =    -0.00153537   -0.01402233   -0.01005996
     atom   25 type  3   force =    -0.00261045    0.00995593   -0.00580632
     The Hubbard contrib.    to forces
     atom    1 type  2   force =     0.00000000    0.00000000    0.00000000
     atom    2 type  1   force =     0.00000000    0.00000000    0.00000000
     atom    3 type  1   force =     0.00000000    0.00000000    0.00000000
     atom    4 type  1   force =     0.00000000    0.00000000    0.00000000
     atom    5 type  1   force =     0.00000000    0.00000000    0.00000000
     atom    6 type  4   force =     0.00000000    0.00000000    0.00000000
     atom    7 type  4   force =     0.00000000    0.00000000    0.00000000
     atom    8 type  4   force =     0.00000000    0.00000000    0.00000000
     atom    9 type  4   force =     0.00000000    0.00000000    0.00000000
     atom   10 type  3   force =     0.00000000    0.00000000    0.00000000
     atom   11 type  3   force =     0.00000000    0.00000000    0.00000000
     atom   12 type  3   force =     0.00000000    0.00000000    0.00000000
     atom   13 type  3   force =     0.00000000    0.00000000    0.00000000
     atom   14 type  3   force =     0.00000000    0.00000000    0.00000000
     atom   15 type  3   force =     0.00000000    0.00000000    0.00000000
     atom   16 type  3   force =     0.00000000    0.00000000    0.00000000
     atom   17 type  3   force =     0.00000000    0.00000000    0.00000000
     atom   18 type  3   force =     0.00000000    0.00000000    0.00000000
     atom   19 type  3   force =     0.00000000    0.00000000    0.00000000
     atom   20 type  3   force =     0.00000000    0.00000000    0.00000000
     atom   21 type  3   force =     0.00000000    0.00000000    0.00000000
     atom   22 type  3   force =     0.00000000    0.00000000    0.00000000
     atom   23 type  3   force =     0.00000000    0.00000000    0.00000000
     atom   24 type  3   force =     0.00000000    0.00000000    0.00000000
     atom   25 type  3   force =     0.00000000    0.00000000    0.00000000
     The SCF correction term to forces
     atom    1 type  2   force =     0.00000201    0.00000159    0.00000039
     atom    2 type  1   force =    -0.00000044   -0.00000070   -0.00000095
     atom    3 type  1   force =     0.00000123   -0.00000052    0.00000044
     atom    4 type  1   force =    -0.00000240   -0.00000099    0.00000030
     atom    5 type  1   force =    -0.00000178    0.00000024   -0.00000139
     atom    6 type  4   force =     0.00000116   -0.00000030    0.00000009
     atom    7 type  4   force =    -0.00000001    0.00000023   -0.00000019
     atom    8 type  4   force =     0.00000062   -0.00000131    0.00000049
     atom    9 type  4   force =    -0.00000081    0.00000044   -0.00000013
     atom   10 type  3   force =     0.00000071   -0.00000037   -0.00000007
     atom   11 type  3   force =    -0.00000083    0.00000033    0.00000092
     atom   12 type  3   force =    -0.00000081   -0.00000347   -0.00000161
     atom   13 type  3   force =    -0.00000278    0.00000111    0.00000168
     atom   14 type  3   force =    -0.00000001    0.00000010    0.00000008
     atom   15 type  3   force =     0.00000182    0.00000013   -0.00000036
     atom   16 type  3   force =     0.00000097    0.00000001    0.00000102
     atom   17 type  3   force =     0.00000309    0.00000107   -0.00000088
     atom   18 type  3   force =     0.00000025    0.00000050    0.00000023
     atom   19 type  3   force =    -0.00000017    0.00000164   -0.00000061
     atom   20 type  3   force =     0.00000215   -0.00000162    0.00000175
     atom   21 type  3   force =    -0.00000218   -0.00000314   -0.00000188
     atom   22 type  3   force =    -0.00000151    0.00000040    0.00000136
     atom   23 type  3   force =    -0.00000156    0.00000402   -0.00000134
     atom   24 type  3   force =     0.00000153   -0.00000130    0.00000082
     atom   25 type  3   force =    -0.00000042   -0.00000143   -0.00000083

     Total force =     0.253091     Total SCF correction =     0.000012


     Computing stress (Cartesian axis) and pressure


     negative rho (up, down):  0.000E+00 8.596E-04
          total   stress  (Ry/bohr**3)                   (kbar)     P=     -113.01
  -0.00127607   0.00014728  -0.00003461         -187.72       21.67       -5.09
   0.00014728  -0.00074514  -0.00008510           21.67     -109.61      -12.52
  -0.00003461  -0.00008510  -0.00028339           -5.09      -12.52      -41.69

     kinetic stress (kbar)  23702.16     68.98    -47.43
                               68.98  23868.64     -8.09
                              -47.43     -8.09  23934.90

     local   stress (kbar)  -8441.05   3059.95  -6100.62
                             3059.95 -13216.87    499.39
                            -6100.62    499.39  -6142.49

     nonloc. stress (kbar)  -6045.16      8.66     -0.57
                                8.66  -6005.74     -4.58
                               -0.57     -4.58  -6005.86

     hartree stress (kbar)  13334.34  -1175.04   2571.73
                            -1175.04  16079.91   -154.91
                             2571.73   -154.91  12860.32

     exc-cor stress (kbar)  -2518.21     -2.52      2.73
                               -2.52  -2523.04     -0.94
                                2.73     -0.94  -2522.76

     corecor stress (kbar)  -2821.49     -0.12     -0.59
                               -0.12  -2823.20      0.75
                               -0.59      0.75  -2824.61

     ewald   stress (kbar) -17398.30  -1938.25   3569.66
                            -1938.25 -15489.31   -344.15
                             3569.66   -344.15 -19341.19

     hubbard stress (kbar)      0.00      0.00      0.00
                                0.00      0.00      0.00
                                0.00      0.00      0.00

     DFT-D   stress (kbar)      0.00      0.00      0.00
                                0.00      0.00      0.00
                                0.00      0.00      0.00

     XDM     stress (kbar)      0.00      0.00      0.00
                                0.00      0.00      0.00
                                0.00      0.00      0.00

     dft-nl  stress (kbar)      0.00      0.00      0.00
                                0.00      0.00      0.00
                                0.00      0.00      0.00

     TS-vdW  stress (kbar)      0.00      0.00      0.00
                                0.00      0.00      0.00
                                0.00      0.00      0.00



     init_run     :   1191.54s CPU   1391.15s WALL (       1 calls)
     electrons    : 111202.31s CPU 122192.52s WALL (       1 calls)
     forces       :    209.57s CPU    218.72s WALL (       1 calls)
     stress       :    939.08s CPU    966.78s WALL (       1 calls)

     Called by init_run:
     wfcinit      :   1178.20s CPU   1361.42s WALL (       1 calls)
     wfcinit:atom :      1.12s CPU      1.35s WALL (     316 calls)
     wfcinit:wfcr :   1171.44s CPU   1353.27s WALL (     316 calls)
     potinit      :      5.36s CPU     11.53s WALL (       1 calls)
     hinit0       :      4.80s CPU     11.14s WALL (       1 calls)

     Called by electrons:
     c_bands      :  93124.50s CPU 102229.38s WALL (      38 calls)
     sum_band     :  17797.45s CPU  19642.48s WALL (      38 calls)
     v_of_rho     :    100.48s CPU    112.25s WALL (      39 calls)
     v_h          :      7.36s CPU      8.23s WALL (      39 calls)
     v_xc         :     98.27s CPU    109.20s WALL (      41 calls)
     newd         :     79.68s CPU    102.85s WALL (      39 calls)
     PAW_pot      :     22.22s CPU     25.40s WALL (      39 calls)
     mix_rho      :     62.69s CPU     68.25s WALL (      38 calls)

     Called by c_bands:
     init_us_2    :    193.04s CPU    216.64s WALL (   24964 calls)
     cegterg      :  91959.78s CPU 100912.51s WALL (   12008 calls)

     Called by sum_band:
     sum_band:wei :      0.64s CPU      0.80s WALL (      38 calls)
     sum_band:loo :  17625.23s CPU  19432.88s WALL (      38 calls)
     sum_band:buf :     54.28s CPU     58.22s WALL (   12008 calls)
     sum_band:ini :     87.44s CPU     99.23s WALL (   12008 calls)
     sum_band:cal :   1617.22s CPU   1783.98s WALL (   12008 calls)
     sum_band:bec :      7.93s CPU      8.50s WALL (   12008 calls)
     addusdens    :    142.64s CPU    178.18s WALL (      38 calls)
     addusd:skk   :      1.05s CPU      1.18s WALL (     114 calls)
     addusd:dgemm :     59.02s CPU     84.30s WALL (     228 calls)
     addusd:qvan2 :     81.01s CPU     90.57s WALL (     228 calls)

     Called by *egterg:
     cdiaghg      :   3931.84s CPU   4345.18s WALL (   42425 calls)
     cegterg:over :   4964.77s CPU   5412.00s WALL (   30417 calls)
     cegterg:upda :    692.73s CPU    774.38s WALL (   30417 calls)
     cegterg:last :   1596.88s CPU   1779.10s WALL (   20245 calls)
     h_psi        :  75543.98s CPU  82974.67s WALL (   42741 calls)
     s_psi        :   1669.45s CPU   1858.20s WALL (   42741 calls)
     g_psi        :     12.14s CPU     13.29s WALL (   30417 calls)

     Called by h_psi:
     h_psi:calbec :   4337.67s CPU   4749.63s WALL (   42741 calls)
     vloc_psi     :  69290.39s CPU  76072.86s WALL (   42741 calls)
     add_vuspsi   :   1832.25s CPU   2063.36s WALL (   42741 calls)

     General routines
     calbec       :   6312.34s CPU   6901.32s WALL (   56329 calls)
     fft          :    157.27s CPU    173.40s WALL (    1013 calls)
     ffts         :      2.80s CPU      3.11s WALL (     154 calls)
     fftw         :  84848.69s CPU  93253.15s WALL ( 7326684 calls)
     interpolate  :     12.38s CPU     13.62s WALL (      78 calls)

     Parallel routines
     fft_scatt_xy :    357.62s CPU    358.77s WALL ( 7327851 calls)
     fft_scatt_yz :  82268.34s CPU  90681.15s WALL ( 7327851 calls)

     PAW routines
     PAW_pot      :     22.22s CPU     25.40s WALL (      39 calls)

     PWSCF        :   1d 7h32m CPU   1d10h40m WALL


   This run was terminated on:  11:53:14  25Jan2023            

=------------------------------------------------------------------------------=
   JOB DONE.
=------------------------------------------------------------------------------=
Note: The following floating-point exceptions are signalling: IEEE_INVALID_FLAG IEEE_UNDERFLOW_FLAG IEEE_DENORMAL
Note: The following floating-point exceptions are signalling: IEEE_DENORMAL
Note: The following floating-point exceptions are signalling: IEEE_DENORMAL
Note: The following floating-point exceptions are signalling: IEEE_DENORMAL
Note: The following floating-point exceptions are signalling: IEEE_DENORMAL
Note: The following floating-point exceptions are signalling: IEEE_DENORMAL
Note: The following floating-point exceptions are signalling: IEEE_DENORMAL
Note: The following floating-point exceptions are signalling: IEEE_DENORMAL
Note: The following floating-point exceptions are signalling: IEEE_DENORMAL
Note: The following floating-point exceptions are signalling: IEEE_DENORMAL
Note: The following floating-point exceptions are signalling: IEEE_DENORMAL
Note: The following floating-point exceptions are signalling: IEEE_DENORMAL
Note: The following floating-point exceptions are signalling: IEEE_DENORMAL
Note: The following floating-point exceptions are signalling: IEEE_DENORMAL
Note: The following floating-point exceptions are signalling: IEEE_DENORMAL
Note: The following floating-point exceptions are signalling: IEEE_INVALID_FLAG IEEE_DENORMAL
Note: The following floating-point exceptions are signalling: IEEE_DENORMAL
Note: The following floating-point exceptions are signalling: IEEE_DENORMAL
Note: The following floating-point exceptions are signalling: IEEE_DENORMAL
Note: The following floating-point exceptions are signalling: IEEE_DENORMAL
Note: The following floating-point exceptions are signalling: IEEE_DENORMAL
Note: The following floating-point exceptions are signalling: IEEE_DENORMAL
Note: The following floating-point exceptions are signalling: IEEE_DENORMAL
