
     Program PWSCF v.6.7MaX starts on 15Jan2023 at  5:21: 0 

     This program is part of the open-source Quantum ESPRESSO suite
     for quantum simulation of materials; please cite
         "P. Giannozzi et al., J. Phys.:Condens. Matter 21 395502 (2009);
         "P. Giannozzi et al., J. Phys.:Condens. Matter 29 465901 (2017);
          URL http://www.quantum-espresso.org", 
     in publications or presentations arising from this work. More details at
     http://www.quantum-espresso.org/quote

     Parallel version (MPI), running on    12 processors

     MPI processes distributed on     1 nodes
     R & G space division:  proc/nbgrp/npool/nimage =      12
     Reading input from scale_2dab-02.in

     Current dimensions of program PWSCF are:
     Max number of different atomic species (ntypx) = 10
     Max number of k-points (npk) =  40000
     Max angular momentum in pseudopotentials (lmaxx) =  3
     Message from routine read_pp_mesh:
     mesh size missing, using the one in header
     file Fe.pbe-spn-kjpaw_psl.0.2.1.UPF: wavefunction(s)  3D renormalized
     file O.pbe-n-kjpaw_psl.0.1.UPF: wavefunction(s)  2P renormalized

     Subspace diagonalization in iterative solution of the eigenvalue problem:
     a serial algorithm will be used


     Parallelization info
     --------------------
     sticks:   dense  smooth     PW     G-vecs:    dense   smooth      PW
     Min        1600     592    159               104339    23526    3313
     Max        1602     593    160               104340    23528    3316
     Sum       19211    7107   1919              1252071   282325   39769



     bravais-lattice index     =            0
     lattice parameter (alat)  =      19.3373  a.u.
     unit-cell volume          =    2088.9460 (a.u.)^3
     number of atoms/cell      =           25
     number of atomic types    =            4
     number of electrons       =       189.00
     number of Kohn-Sham states=          114
     kinetic-energy cutoff     =     100.0000  Ry
     charge density cutoff     =    1080.0000  Ry
     scf convergence threshold =      2.0E-10
     mixing beta               =       0.4000
     number of iterations used =            8  plain     mixing
     Exchange-correlation= PBE
                           (   1   4   3   4   0   0   0)

     celldm(1)=  19.337306  celldm(2)=   0.000000  celldm(3)=   0.000000
     celldm(4)=   0.000000  celldm(5)=   0.000000  celldm(6)=   0.000000

     crystal axes: (cart. coord. in units of alat)
               a(1) = (   1.000000   0.000000   0.000000 )  
               a(2) = (   0.000000   0.597590   0.000000 )  
               a(3) = (   0.000000   0.000000   0.483433 )  

     reciprocal axes: (cart. coord. in units 2 pi/alat)
               b(1) = (  1.000000  0.000000  0.000000 )  
               b(2) = (  0.000000  1.673388  0.000000 )  
               b(3) = (  0.000000  0.000000  2.068540 )  


     PseudoPot. # 1 for Fe read from file:
     /opt/QEpot/SSSP_precision_pseudos/Fe.pbe-spn-kjpaw_psl.0.2.1.UPF
     MD5 check sum: e86618425769142926afa95317d90200
     Pseudo is Projector augmented-wave + core cor, Zval = 16.0
     Generated using "atomic" code by A. Dal Corso  v.5.0.99 svn rev. 10869
     Shape of augmentation charge: PSQ
     Using radial grid of 1191 points,  6 beta functions with: 
                l(1) =   0
                l(2) =   0
                l(3) =   1
                l(4) =   1
                l(5) =   2
                l(6) =   2
     Q(r) pseudized with 0 coefficients 


     PseudoPot. # 2 for Na read from file:
     /opt/QEpot/SSSP_precision_pseudos/Na_ONCV_PBE-1.0.oncvpsp.upf
     MD5 check sum: 24a298df0a6742ae313db96548fdb2a4
     Pseudo is Norm-conserving, Zval =  9.0
     Generated using ONCVPSP code by D. R. Hamann
     Using radial grid of 1992 points,  4 beta functions with: 
                l(1) =   0
                l(2) =   0
                l(3) =   1
                l(4) =   1

     PseudoPot. # 3 for O  read from file:
     /opt/QEpot/SSSP_precision_pseudos/O.pbe-n-kjpaw_psl.0.1.UPF
     MD5 check sum: 0234752ac141de4415c5fc33072bef88
     Pseudo is Projector augmented-wave + core cor, Zval =  6.0
     Generated using "atomic" code by A. Dal Corso  v.5.0.99 svn rev. 10869
     Shape of augmentation charge: BESSEL
     Using radial grid of 1095 points,  4 beta functions with: 
                l(1) =   0
                l(2) =   0
                l(3) =   1
                l(4) =   1
     Q(r) pseudized with 0 coefficients 


     PseudoPot. # 4 for P  read from file:
     /opt/QEpot/SSSP_precision_pseudos/P.pbe-n-rrkjus_psl.1.0.0.UPF
     MD5 check sum: 8b930f418f0a4573dca56cd030ffe088
     Pseudo is Ultrasoft + core correction, Zval =  5.0
     Generated using "atomic" code by A. Dal Corso  v.5.1
     Using radial grid of 1147 points,  6 beta functions with: 
                l(1) =   0
                l(2) =   0
                l(3) =   1
                l(4) =   1
                l(5) =   2
                l(6) =   2
     Q(r) pseudized with 0 coefficients 


     atomic species   valence    mass     pseudopotential
        Fe            16.00    55.84500     Fe( 1.00)
        Na             9.00    22.98977     Na( 1.00)
        O              6.00    15.99940     O ( 1.00)
        P              5.00    30.97376     P ( 1.00)

     Starting magnetic structure 
     atomic species   magnetization
        Fe           0.312
        Na           0.000
        O            0.000
        P            0.000

     No symmetry found


                                    s                        frac. trans.

      isym =  1     identity                                     

 cryst.   s( 1) = (     1          0          0      )
                  (     0          1          0      )
                  (     0          0          1      )

 cart.    s( 1) = (  1.0000000  0.0000000  0.0000000 )
                  (  0.0000000  1.0000000  0.0000000 )
                  (  0.0000000  0.0000000  1.0000000 )


   Cartesian axes

     site n.     atom                  positions (alat units)
         1           Na  tau(   1) = (   0.9908320   0.5356354   0.3977916  )
         2           Fe  tau(   2) = (   0.2986640   0.4600636   0.4146006  )
         3           Fe  tau(   3) = (   0.2176140   0.1809861   0.2329715  )
         4           Fe  tau(   4) = (   0.6993130   0.1376997   0.0580216  )
         5           Fe  tau(   5) = (   0.7827270   0.3981778   0.2269426  )
         6           P   tau(   6) = (   0.0964330   0.4188508   0.1496340  )
         7           P   tau(   7) = (   0.3931680   0.1503273   0.4448180  )
         8           P   tau(   8) = (   0.9083370   0.1933305   0.3319665  )
         9           P   tau(   9) = (   0.6077760   0.4480138   0.0167872  )
        10           O   tau(  10) = (   0.1605150   0.4345309   0.2853442  )
        11           O   tau(  11) = (   0.3515630   0.1480744   0.1054309  )
        12           O   tau(  12) = (   0.8284030   0.1978238   0.2011027  )
        13           O   tau(  13) = (   0.6540840   0.4478219   0.3576430  )
        14           O   tau(  14) = (   0.4610620   0.4592915   0.0275885  )
        15           O   tau(  15) = (   0.0466520   0.1415410   0.3157792  )
        16           O   tau(  16) = (   0.5400580   0.1412236   0.4325301  )
        17           O   tau(  17) = (   0.9523340   0.4615330   0.1561275  )
        18           O   tau(  18) = (   0.1650350   0.5123144   0.0530838  )
        19           O   tau(  19) = (   0.3242430   0.0432697   0.3602134  )
        20           O   tau(  20) = (   0.8958430   0.3332681   0.3815435  )
        21           O   tau(  21) = (   0.6568690   0.3248242   0.0931850  )
        22           O   tau(  22) = (   0.8385610   0.0970677   0.4246309  )
        23           O   tau(  23) = (   0.6777090   0.5527014   0.1031626  )
        24           O   tau(  24) = (   0.1168020   0.2790685   0.1028532  )
        25           O   tau(  25) = (   0.3354730   0.2712646   0.3693083  )

   Crystallographic axes

     site n.     atom                  positions (cryst. coord.)
         1           Na  tau(   1) = (  0.9908320  0.8963260  0.8228480  )
         2           Fe  tau(   2) = (  0.2986640  0.7698650  0.8576180  )
         3           Fe  tau(   3) = (  0.2176140  0.3028600  0.4819110  )
         4           Fe  tau(   4) = (  0.6993130  0.2304250  0.1200200  )
         5           Fe  tau(   5) = (  0.7827270  0.6663060  0.4694400  )
         6           P   tau(   6) = (  0.0964330  0.7009000  0.3095240  )
         7           P   tau(   7) = (  0.3931680  0.2515560  0.9201240  )
         8           P   tau(   8) = (  0.9083370  0.3235170  0.6866860  )
         9           P   tau(   9) = (  0.6077760  0.7497010  0.0347250  )
        10           O   tau(  10) = (  0.1605150  0.7271390  0.5902460  )
        11           O   tau(  11) = (  0.3515630  0.2477860  0.2180880  )
        12           O   tau(  12) = (  0.8284030  0.3310360  0.4159890  )
        13           O   tau(  13) = (  0.6540840  0.7493800  0.7397990  )
        14           O   tau(  14) = (  0.4610620  0.7685730  0.0570680  )
        15           O   tau(  15) = (  0.0466520  0.2368530  0.6532020  )
        16           O   tau(  16) = (  0.5400580  0.2363220  0.8947060  )
        17           O   tau(  17) = (  0.9523340  0.7723240  0.3229560  )
        18           O   tau(  18) = (  0.1650350  0.8573010  0.1098060  )
        19           O   tau(  19) = (  0.3242430  0.0724070  0.7451160  )
        20           O   tau(  20) = (  0.8958430  0.5576870  0.7892380  )
        21           O   tau(  21) = (  0.6568690  0.5435570  0.1927570  )
        22           O   tau(  22) = (  0.8385610  0.1624320  0.8783660  )
        23           O   tau(  23) = (  0.6777090  0.9248840  0.2133960  )
        24           O   tau(  24) = (  0.1168020  0.4669900  0.2127560  )
        25           O   tau(  25) = (  0.3354730  0.4539310  0.7639290  )

     number of k points=   158  Marzari-Vanderbilt smearing, width (Ry)=  0.0073
                       cart. coord. in units 2pi/alat
        k(    1) = (   0.0000000   0.0000000   0.0000000), wk =   0.0031746
        k(    2) = (   0.0000000   0.0000000   0.2298378), wk =   0.0063492
        k(    3) = (   0.0000000   0.0000000   0.4596756), wk =   0.0063492
        k(    4) = (   0.0000000   0.0000000   0.6895134), wk =   0.0063492
        k(    5) = (   0.0000000   0.0000000   0.9193512), wk =   0.0063492
        k(    6) = (   0.0000000   0.2390555   0.0000000), wk =   0.0063492
        k(    7) = (   0.0000000   0.2390555   0.2298378), wk =   0.0063492
        k(    8) = (   0.0000000   0.2390555   0.4596756), wk =   0.0063492
        k(    9) = (   0.0000000   0.2390555   0.6895134), wk =   0.0063492
        k(   10) = (   0.0000000   0.2390555   0.9193512), wk =   0.0063492
        k(   11) = (   0.0000000   0.4781110   0.0000000), wk =   0.0063492
        k(   12) = (   0.0000000   0.4781110   0.2298378), wk =   0.0063492
        k(   13) = (   0.0000000   0.4781110   0.4596756), wk =   0.0063492
        k(   14) = (   0.0000000   0.4781110   0.6895134), wk =   0.0063492
        k(   15) = (   0.0000000   0.4781110   0.9193512), wk =   0.0063492
        k(   16) = (   0.0000000   0.7171664   0.0000000), wk =   0.0063492
        k(   17) = (   0.0000000   0.7171664   0.2298378), wk =   0.0063492
        k(   18) = (   0.0000000   0.7171664   0.4596756), wk =   0.0063492
        k(   19) = (   0.0000000   0.7171664   0.6895134), wk =   0.0063492
        k(   20) = (   0.0000000   0.7171664   0.9193512), wk =   0.0063492
        k(   21) = (   0.2000000   0.0000000   0.0000000), wk =   0.0063492
        k(   22) = (   0.2000000   0.0000000   0.2298378), wk =   0.0063492
        k(   23) = (   0.2000000   0.0000000   0.4596756), wk =   0.0063492
        k(   24) = (   0.2000000   0.0000000   0.6895134), wk =   0.0063492
        k(   25) = (   0.2000000   0.0000000   0.9193512), wk =   0.0063492
        k(   26) = (   0.2000000   0.2390555   0.0000000), wk =   0.0063492
        k(   27) = (   0.2000000   0.2390555   0.2298378), wk =   0.0063492
        k(   28) = (   0.2000000   0.2390555   0.4596756), wk =   0.0063492
        k(   29) = (   0.2000000   0.2390555   0.6895134), wk =   0.0063492
        k(   30) = (   0.2000000   0.2390555   0.9193512), wk =   0.0063492
        k(   31) = (   0.2000000   0.4781110   0.0000000), wk =   0.0063492
        k(   32) = (   0.2000000   0.4781110   0.2298378), wk =   0.0063492
        k(   33) = (   0.2000000   0.4781110   0.4596756), wk =   0.0063492
        k(   34) = (   0.2000000   0.4781110   0.6895134), wk =   0.0063492
        k(   35) = (   0.2000000   0.4781110   0.9193512), wk =   0.0063492
        k(   36) = (   0.2000000   0.7171664   0.0000000), wk =   0.0063492
        k(   37) = (   0.2000000   0.7171664   0.2298378), wk =   0.0063492
        k(   38) = (   0.2000000   0.7171664   0.4596756), wk =   0.0063492
        k(   39) = (   0.2000000   0.7171664   0.6895134), wk =   0.0063492
        k(   40) = (   0.2000000   0.7171664   0.9193512), wk =   0.0063492
        k(   41) = (   0.4000000   0.0000000   0.0000000), wk =   0.0063492
        k(   42) = (   0.4000000   0.0000000   0.2298378), wk =   0.0063492
        k(   43) = (   0.4000000   0.0000000   0.4596756), wk =   0.0063492
        k(   44) = (   0.4000000   0.0000000   0.6895134), wk =   0.0063492
        k(   45) = (   0.4000000   0.0000000   0.9193512), wk =   0.0063492
        k(   46) = (   0.4000000   0.2390555   0.0000000), wk =   0.0063492
        k(   47) = (   0.4000000   0.2390555   0.2298378), wk =   0.0063492
        k(   48) = (   0.4000000   0.2390555   0.4596756), wk =   0.0063492
        k(   49) = (   0.4000000   0.2390555   0.6895134), wk =   0.0063492
        k(   50) = (   0.4000000   0.2390555   0.9193512), wk =   0.0063492
        k(   51) = (   0.4000000   0.4781110   0.0000000), wk =   0.0063492
        k(   52) = (   0.4000000   0.4781110   0.2298378), wk =   0.0063492
        k(   53) = (   0.4000000   0.4781110   0.4596756), wk =   0.0063492
        k(   54) = (   0.4000000   0.4781110   0.6895134), wk =   0.0063492
        k(   55) = (   0.4000000   0.4781110   0.9193512), wk =   0.0063492
        k(   56) = (   0.4000000   0.7171664   0.0000000), wk =   0.0063492
        k(   57) = (   0.4000000   0.7171664   0.2298378), wk =   0.0063492
        k(   58) = (   0.4000000   0.7171664   0.4596756), wk =   0.0063492
        k(   59) = (   0.4000000   0.7171664   0.6895134), wk =   0.0063492
        k(   60) = (   0.4000000   0.7171664   0.9193512), wk =   0.0063492
        k(   61) = (   0.0000000  -0.2390555   0.2298378), wk =   0.0063492
        k(   62) = (   0.0000000  -0.2390555   0.4596756), wk =   0.0063492
        k(   63) = (   0.0000000  -0.2390555   0.6895134), wk =   0.0063492
        k(   64) = (   0.0000000  -0.2390555   0.9193512), wk =   0.0063492
        k(   65) = (   0.0000000  -0.4781110   0.2298378), wk =   0.0063492
        k(   66) = (   0.0000000  -0.4781110   0.4596756), wk =   0.0063492
        k(   67) = (   0.0000000  -0.4781110   0.6895134), wk =   0.0063492
        k(   68) = (   0.0000000  -0.4781110   0.9193512), wk =   0.0063492
        k(   69) = (   0.0000000  -0.7171664   0.2298378), wk =   0.0063492
        k(   70) = (   0.0000000  -0.7171664   0.4596756), wk =   0.0063492
        k(   71) = (   0.0000000  -0.7171664   0.6895134), wk =   0.0063492
        k(   72) = (   0.0000000  -0.7171664   0.9193512), wk =   0.0063492
        k(   73) = (  -0.2000000   0.0000000   0.2298378), wk =   0.0063492
        k(   74) = (  -0.2000000   0.0000000   0.4596756), wk =   0.0063492
        k(   75) = (  -0.2000000   0.0000000   0.6895134), wk =   0.0063492
        k(   76) = (  -0.2000000   0.0000000   0.9193512), wk =   0.0063492
        k(   77) = (  -0.2000000   0.2390555   0.0000000), wk =   0.0063492
        k(   78) = (  -0.2000000  -0.2390555   0.2298378), wk =   0.0063492
        k(   79) = (  -0.2000000   0.2390555  -0.2298378), wk =   0.0063492
        k(   80) = (   0.2000000  -0.2390555  -0.2298378), wk =   0.0063492
        k(   81) = (  -0.2000000  -0.2390555   0.4596756), wk =   0.0063492
        k(   82) = (  -0.2000000   0.2390555  -0.4596756), wk =   0.0063492
        k(   83) = (   0.2000000  -0.2390555  -0.4596756), wk =   0.0063492
        k(   84) = (  -0.2000000  -0.2390555   0.6895134), wk =   0.0063492
        k(   85) = (  -0.2000000   0.2390555  -0.6895134), wk =   0.0063492
        k(   86) = (   0.2000000  -0.2390555  -0.6895134), wk =   0.0063492
        k(   87) = (  -0.2000000  -0.2390555   0.9193512), wk =   0.0063492
        k(   88) = (  -0.2000000   0.2390555  -0.9193512), wk =   0.0063492
        k(   89) = (   0.2000000  -0.2390555  -0.9193512), wk =   0.0063492
        k(   90) = (  -0.2000000   0.4781110   0.0000000), wk =   0.0063492
        k(   91) = (  -0.2000000  -0.4781110   0.2298378), wk =   0.0063492
        k(   92) = (  -0.2000000   0.4781110  -0.2298378), wk =   0.0063492
        k(   93) = (   0.2000000  -0.4781110  -0.2298378), wk =   0.0063492
        k(   94) = (  -0.2000000  -0.4781110   0.4596756), wk =   0.0063492
        k(   95) = (  -0.2000000   0.4781110  -0.4596756), wk =   0.0063492
        k(   96) = (   0.2000000  -0.4781110  -0.4596756), wk =   0.0063492
        k(   97) = (  -0.2000000  -0.4781110   0.6895134), wk =   0.0063492
        k(   98) = (  -0.2000000   0.4781110  -0.6895134), wk =   0.0063492
        k(   99) = (   0.2000000  -0.4781110  -0.6895134), wk =   0.0063492
        k(  100) = (  -0.2000000  -0.4781110   0.9193512), wk =   0.0063492
        k(  101) = (  -0.2000000   0.4781110  -0.9193512), wk =   0.0063492
        k(  102) = (   0.2000000  -0.4781110  -0.9193512), wk =   0.0063492
        k(  103) = (  -0.2000000   0.7171664   0.0000000), wk =   0.0063492
        k(  104) = (  -0.2000000  -0.7171664   0.2298378), wk =   0.0063492
        k(  105) = (  -0.2000000   0.7171664  -0.2298378), wk =   0.0063492
        k(  106) = (   0.2000000  -0.7171664  -0.2298378), wk =   0.0063492
        k(  107) = (  -0.2000000  -0.7171664   0.4596756), wk =   0.0063492
        k(  108) = (  -0.2000000   0.7171664  -0.4596756), wk =   0.0063492
        k(  109) = (   0.2000000  -0.7171664  -0.4596756), wk =   0.0063492
        k(  110) = (  -0.2000000  -0.7171664   0.6895134), wk =   0.0063492
        k(  111) = (  -0.2000000   0.7171664  -0.6895134), wk =   0.0063492
        k(  112) = (   0.2000000  -0.7171664  -0.6895134), wk =   0.0063492
        k(  113) = (  -0.2000000  -0.7171664   0.9193512), wk =   0.0063492
        k(  114) = (  -0.2000000   0.7171664  -0.9193512), wk =   0.0063492
        k(  115) = (   0.2000000  -0.7171664  -0.9193512), wk =   0.0063492
        k(  116) = (  -0.4000000   0.0000000   0.2298378), wk =   0.0063492
        k(  117) = (  -0.4000000   0.0000000   0.4596756), wk =   0.0063492
        k(  118) = (  -0.4000000   0.0000000   0.6895134), wk =   0.0063492
        k(  119) = (  -0.4000000   0.0000000   0.9193512), wk =   0.0063492
        k(  120) = (  -0.4000000   0.2390555   0.0000000), wk =   0.0063492
        k(  121) = (  -0.4000000  -0.2390555   0.2298378), wk =   0.0063492
        k(  122) = (  -0.4000000   0.2390555  -0.2298378), wk =   0.0063492
        k(  123) = (   0.4000000  -0.2390555  -0.2298378), wk =   0.0063492
        k(  124) = (  -0.4000000  -0.2390555   0.4596756), wk =   0.0063492
        k(  125) = (  -0.4000000   0.2390555  -0.4596756), wk =   0.0063492
        k(  126) = (   0.4000000  -0.2390555  -0.4596756), wk =   0.0063492
        k(  127) = (  -0.4000000  -0.2390555   0.6895134), wk =   0.0063492
        k(  128) = (  -0.4000000   0.2390555  -0.6895134), wk =   0.0063492
        k(  129) = (   0.4000000  -0.2390555  -0.6895134), wk =   0.0063492
        k(  130) = (  -0.4000000  -0.2390555   0.9193512), wk =   0.0063492
        k(  131) = (  -0.4000000   0.2390555  -0.9193512), wk =   0.0063492
        k(  132) = (   0.4000000  -0.2390555  -0.9193512), wk =   0.0063492
        k(  133) = (  -0.4000000   0.4781110   0.0000000), wk =   0.0063492
        k(  134) = (  -0.4000000  -0.4781110   0.2298378), wk =   0.0063492
        k(  135) = (  -0.4000000   0.4781110  -0.2298378), wk =   0.0063492
        k(  136) = (   0.4000000  -0.4781110  -0.2298378), wk =   0.0063492
        k(  137) = (  -0.4000000  -0.4781110   0.4596756), wk =   0.0063492
        k(  138) = (  -0.4000000   0.4781110  -0.4596756), wk =   0.0063492
        k(  139) = (   0.4000000  -0.4781110  -0.4596756), wk =   0.0063492
        k(  140) = (  -0.4000000  -0.4781110   0.6895134), wk =   0.0063492
        k(  141) = (  -0.4000000   0.4781110  -0.6895134), wk =   0.0063492
        k(  142) = (   0.4000000  -0.4781110  -0.6895134), wk =   0.0063492
        k(  143) = (  -0.4000000  -0.4781110   0.9193512), wk =   0.0063492
        k(  144) = (  -0.4000000   0.4781110  -0.9193512), wk =   0.0063492
        k(  145) = (   0.4000000  -0.4781110  -0.9193512), wk =   0.0063492
        k(  146) = (  -0.4000000   0.7171664   0.0000000), wk =   0.0063492
        k(  147) = (  -0.4000000  -0.7171664   0.2298378), wk =   0.0063492
        k(  148) = (  -0.4000000   0.7171664  -0.2298378), wk =   0.0063492
        k(  149) = (   0.4000000  -0.7171664  -0.2298378), wk =   0.0063492
        k(  150) = (  -0.4000000  -0.7171664   0.4596756), wk =   0.0063492
        k(  151) = (  -0.4000000   0.7171664  -0.4596756), wk =   0.0063492
        k(  152) = (   0.4000000  -0.7171664  -0.4596756), wk =   0.0063492
        k(  153) = (  -0.4000000  -0.7171664   0.6895134), wk =   0.0063492
        k(  154) = (  -0.4000000   0.7171664  -0.6895134), wk =   0.0063492
        k(  155) = (   0.4000000  -0.7171664  -0.6895134), wk =   0.0063492
        k(  156) = (  -0.4000000  -0.7171664   0.9193512), wk =   0.0063492
        k(  157) = (  -0.4000000   0.7171664  -0.9193512), wk =   0.0063492
        k(  158) = (   0.4000000  -0.7171664  -0.9193512), wk =   0.0063492

                       cryst. coord.
        k(    1) = (   0.0000000   0.0000000   0.0000000), wk =   0.0031746
        k(    2) = (   0.0000000   0.0000000   0.1111111), wk =   0.0063492
        k(    3) = (   0.0000000   0.0000000   0.2222222), wk =   0.0063492
        k(    4) = (   0.0000000   0.0000000   0.3333333), wk =   0.0063492
        k(    5) = (   0.0000000   0.0000000   0.4444444), wk =   0.0063492
        k(    6) = (   0.0000000   0.1428571   0.0000000), wk =   0.0063492
        k(    7) = (   0.0000000   0.1428571   0.1111111), wk =   0.0063492
        k(    8) = (   0.0000000   0.1428571   0.2222222), wk =   0.0063492
        k(    9) = (   0.0000000   0.1428571   0.3333333), wk =   0.0063492
        k(   10) = (   0.0000000   0.1428571   0.4444444), wk =   0.0063492
        k(   11) = (   0.0000000   0.2857143   0.0000000), wk =   0.0063492
        k(   12) = (   0.0000000   0.2857143   0.1111111), wk =   0.0063492
        k(   13) = (   0.0000000   0.2857143   0.2222222), wk =   0.0063492
        k(   14) = (   0.0000000   0.2857143   0.3333333), wk =   0.0063492
        k(   15) = (   0.0000000   0.2857143   0.4444444), wk =   0.0063492
        k(   16) = (   0.0000000   0.4285714   0.0000000), wk =   0.0063492
        k(   17) = (   0.0000000   0.4285714   0.1111111), wk =   0.0063492
        k(   18) = (   0.0000000   0.4285714   0.2222222), wk =   0.0063492
        k(   19) = (   0.0000000   0.4285714   0.3333333), wk =   0.0063492
        k(   20) = (   0.0000000   0.4285714   0.4444444), wk =   0.0063492
        k(   21) = (   0.2000000   0.0000000   0.0000000), wk =   0.0063492
        k(   22) = (   0.2000000   0.0000000   0.1111111), wk =   0.0063492
        k(   23) = (   0.2000000   0.0000000   0.2222222), wk =   0.0063492
        k(   24) = (   0.2000000   0.0000000   0.3333333), wk =   0.0063492
        k(   25) = (   0.2000000   0.0000000   0.4444444), wk =   0.0063492
        k(   26) = (   0.2000000   0.1428571   0.0000000), wk =   0.0063492
        k(   27) = (   0.2000000   0.1428571   0.1111111), wk =   0.0063492
        k(   28) = (   0.2000000   0.1428571   0.2222222), wk =   0.0063492
        k(   29) = (   0.2000000   0.1428571   0.3333333), wk =   0.0063492
        k(   30) = (   0.2000000   0.1428571   0.4444444), wk =   0.0063492
        k(   31) = (   0.2000000   0.2857143   0.0000000), wk =   0.0063492
        k(   32) = (   0.2000000   0.2857143   0.1111111), wk =   0.0063492
        k(   33) = (   0.2000000   0.2857143   0.2222222), wk =   0.0063492
        k(   34) = (   0.2000000   0.2857143   0.3333333), wk =   0.0063492
        k(   35) = (   0.2000000   0.2857143   0.4444444), wk =   0.0063492
        k(   36) = (   0.2000000   0.4285714   0.0000000), wk =   0.0063492
        k(   37) = (   0.2000000   0.4285714   0.1111111), wk =   0.0063492
        k(   38) = (   0.2000000   0.4285714   0.2222222), wk =   0.0063492
        k(   39) = (   0.2000000   0.4285714   0.3333333), wk =   0.0063492
        k(   40) = (   0.2000000   0.4285714   0.4444444), wk =   0.0063492
        k(   41) = (   0.4000000   0.0000000   0.0000000), wk =   0.0063492
        k(   42) = (   0.4000000   0.0000000   0.1111111), wk =   0.0063492
        k(   43) = (   0.4000000   0.0000000   0.2222222), wk =   0.0063492
        k(   44) = (   0.4000000   0.0000000   0.3333333), wk =   0.0063492
        k(   45) = (   0.4000000   0.0000000   0.4444444), wk =   0.0063492
        k(   46) = (   0.4000000   0.1428571   0.0000000), wk =   0.0063492
        k(   47) = (   0.4000000   0.1428571   0.1111111), wk =   0.0063492
        k(   48) = (   0.4000000   0.1428571   0.2222222), wk =   0.0063492
        k(   49) = (   0.4000000   0.1428571   0.3333333), wk =   0.0063492
        k(   50) = (   0.4000000   0.1428571   0.4444444), wk =   0.0063492
        k(   51) = (   0.4000000   0.2857143   0.0000000), wk =   0.0063492
        k(   52) = (   0.4000000   0.2857143   0.1111111), wk =   0.0063492
        k(   53) = (   0.4000000   0.2857143   0.2222222), wk =   0.0063492
        k(   54) = (   0.4000000   0.2857143   0.3333333), wk =   0.0063492
        k(   55) = (   0.4000000   0.2857143   0.4444444), wk =   0.0063492
        k(   56) = (   0.4000000   0.4285714   0.0000000), wk =   0.0063492
        k(   57) = (   0.4000000   0.4285714   0.1111111), wk =   0.0063492
        k(   58) = (   0.4000000   0.4285714   0.2222222), wk =   0.0063492
        k(   59) = (   0.4000000   0.4285714   0.3333333), wk =   0.0063492
        k(   60) = (   0.4000000   0.4285714   0.4444444), wk =   0.0063492
        k(   61) = (   0.0000000  -0.1428571   0.1111111), wk =   0.0063492
        k(   62) = (   0.0000000  -0.1428571   0.2222222), wk =   0.0063492
        k(   63) = (   0.0000000  -0.1428571   0.3333333), wk =   0.0063492
        k(   64) = (   0.0000000  -0.1428571   0.4444444), wk =   0.0063492
        k(   65) = (   0.0000000  -0.2857143   0.1111111), wk =   0.0063492
        k(   66) = (   0.0000000  -0.2857143   0.2222222), wk =   0.0063492
        k(   67) = (   0.0000000  -0.2857143   0.3333333), wk =   0.0063492
        k(   68) = (   0.0000000  -0.2857143   0.4444444), wk =   0.0063492
        k(   69) = (   0.0000000  -0.4285714   0.1111111), wk =   0.0063492
        k(   70) = (   0.0000000  -0.4285714   0.2222222), wk =   0.0063492
        k(   71) = (   0.0000000  -0.4285714   0.3333333), wk =   0.0063492
        k(   72) = (   0.0000000  -0.4285714   0.4444444), wk =   0.0063492
        k(   73) = (  -0.2000000   0.0000000   0.1111111), wk =   0.0063492
        k(   74) = (  -0.2000000   0.0000000   0.2222222), wk =   0.0063492
        k(   75) = (  -0.2000000   0.0000000   0.3333333), wk =   0.0063492
        k(   76) = (  -0.2000000   0.0000000   0.4444444), wk =   0.0063492
        k(   77) = (  -0.2000000   0.1428571   0.0000000), wk =   0.0063492
        k(   78) = (  -0.2000000  -0.1428571   0.1111111), wk =   0.0063492
        k(   79) = (  -0.2000000   0.1428571  -0.1111111), wk =   0.0063492
        k(   80) = (   0.2000000  -0.1428571  -0.1111111), wk =   0.0063492
        k(   81) = (  -0.2000000  -0.1428571   0.2222222), wk =   0.0063492
        k(   82) = (  -0.2000000   0.1428571  -0.2222222), wk =   0.0063492
        k(   83) = (   0.2000000  -0.1428571  -0.2222222), wk =   0.0063492
        k(   84) = (  -0.2000000  -0.1428571   0.3333333), wk =   0.0063492
        k(   85) = (  -0.2000000   0.1428571  -0.3333333), wk =   0.0063492
        k(   86) = (   0.2000000  -0.1428571  -0.3333333), wk =   0.0063492
        k(   87) = (  -0.2000000  -0.1428571   0.4444444), wk =   0.0063492
        k(   88) = (  -0.2000000   0.1428571  -0.4444444), wk =   0.0063492
        k(   89) = (   0.2000000  -0.1428571  -0.4444444), wk =   0.0063492
        k(   90) = (  -0.2000000   0.2857143   0.0000000), wk =   0.0063492
        k(   91) = (  -0.2000000  -0.2857143   0.1111111), wk =   0.0063492
        k(   92) = (  -0.2000000   0.2857143  -0.1111111), wk =   0.0063492
        k(   93) = (   0.2000000  -0.2857143  -0.1111111), wk =   0.0063492
        k(   94) = (  -0.2000000  -0.2857143   0.2222222), wk =   0.0063492
        k(   95) = (  -0.2000000   0.2857143  -0.2222222), wk =   0.0063492
        k(   96) = (   0.2000000  -0.2857143  -0.2222222), wk =   0.0063492
        k(   97) = (  -0.2000000  -0.2857143   0.3333333), wk =   0.0063492
        k(   98) = (  -0.2000000   0.2857143  -0.3333333), wk =   0.0063492
        k(   99) = (   0.2000000  -0.2857143  -0.3333333), wk =   0.0063492
        k(  100) = (  -0.2000000  -0.2857143   0.4444444), wk =   0.0063492
        k(  101) = (  -0.2000000   0.2857143  -0.4444444), wk =   0.0063492
        k(  102) = (   0.2000000  -0.2857143  -0.4444444), wk =   0.0063492
        k(  103) = (  -0.2000000   0.4285714   0.0000000), wk =   0.0063492
        k(  104) = (  -0.2000000  -0.4285714   0.1111111), wk =   0.0063492
        k(  105) = (  -0.2000000   0.4285714  -0.1111111), wk =   0.0063492
        k(  106) = (   0.2000000  -0.4285714  -0.1111111), wk =   0.0063492
        k(  107) = (  -0.2000000  -0.4285714   0.2222222), wk =   0.0063492
        k(  108) = (  -0.2000000   0.4285714  -0.2222222), wk =   0.0063492
        k(  109) = (   0.2000000  -0.4285714  -0.2222222), wk =   0.0063492
        k(  110) = (  -0.2000000  -0.4285714   0.3333333), wk =   0.0063492
        k(  111) = (  -0.2000000   0.4285714  -0.3333333), wk =   0.0063492
        k(  112) = (   0.2000000  -0.4285714  -0.3333333), wk =   0.0063492
        k(  113) = (  -0.2000000  -0.4285714   0.4444444), wk =   0.0063492
        k(  114) = (  -0.2000000   0.4285714  -0.4444444), wk =   0.0063492
        k(  115) = (   0.2000000  -0.4285714  -0.4444444), wk =   0.0063492
        k(  116) = (  -0.4000000   0.0000000   0.1111111), wk =   0.0063492
        k(  117) = (  -0.4000000   0.0000000   0.2222222), wk =   0.0063492
        k(  118) = (  -0.4000000   0.0000000   0.3333333), wk =   0.0063492
        k(  119) = (  -0.4000000   0.0000000   0.4444444), wk =   0.0063492
        k(  120) = (  -0.4000000   0.1428571   0.0000000), wk =   0.0063492
        k(  121) = (  -0.4000000  -0.1428571   0.1111111), wk =   0.0063492
        k(  122) = (  -0.4000000   0.1428571  -0.1111111), wk =   0.0063492
        k(  123) = (   0.4000000  -0.1428571  -0.1111111), wk =   0.0063492
        k(  124) = (  -0.4000000  -0.1428571   0.2222222), wk =   0.0063492
        k(  125) = (  -0.4000000   0.1428571  -0.2222222), wk =   0.0063492
        k(  126) = (   0.4000000  -0.1428571  -0.2222222), wk =   0.0063492
        k(  127) = (  -0.4000000  -0.1428571   0.3333333), wk =   0.0063492
        k(  128) = (  -0.4000000   0.1428571  -0.3333333), wk =   0.0063492
        k(  129) = (   0.4000000  -0.1428571  -0.3333333), wk =   0.0063492
        k(  130) = (  -0.4000000  -0.1428571   0.4444444), wk =   0.0063492
        k(  131) = (  -0.4000000   0.1428571  -0.4444444), wk =   0.0063492
        k(  132) = (   0.4000000  -0.1428571  -0.4444444), wk =   0.0063492
        k(  133) = (  -0.4000000   0.2857143   0.0000000), wk =   0.0063492
        k(  134) = (  -0.4000000  -0.2857143   0.1111111), wk =   0.0063492
        k(  135) = (  -0.4000000   0.2857143  -0.1111111), wk =   0.0063492
        k(  136) = (   0.4000000  -0.2857143  -0.1111111), wk =   0.0063492
        k(  137) = (  -0.4000000  -0.2857143   0.2222222), wk =   0.0063492
        k(  138) = (  -0.4000000   0.2857143  -0.2222222), wk =   0.0063492
        k(  139) = (   0.4000000  -0.2857143  -0.2222222), wk =   0.0063492
        k(  140) = (  -0.4000000  -0.2857143   0.3333333), wk =   0.0063492
        k(  141) = (  -0.4000000   0.2857143  -0.3333333), wk =   0.0063492
        k(  142) = (   0.4000000  -0.2857143  -0.3333333), wk =   0.0063492
        k(  143) = (  -0.4000000  -0.2857143   0.4444444), wk =   0.0063492
        k(  144) = (  -0.4000000   0.2857143  -0.4444444), wk =   0.0063492
        k(  145) = (   0.4000000  -0.2857143  -0.4444444), wk =   0.0063492
        k(  146) = (  -0.4000000   0.4285714   0.0000000), wk =   0.0063492
        k(  147) = (  -0.4000000  -0.4285714   0.1111111), wk =   0.0063492
        k(  148) = (  -0.4000000   0.4285714  -0.1111111), wk =   0.0063492
        k(  149) = (   0.4000000  -0.4285714  -0.1111111), wk =   0.0063492
        k(  150) = (  -0.4000000  -0.4285714   0.2222222), wk =   0.0063492
        k(  151) = (  -0.4000000   0.4285714  -0.2222222), wk =   0.0063492
        k(  152) = (   0.4000000  -0.4285714  -0.2222222), wk =   0.0063492
        k(  153) = (  -0.4000000  -0.4285714   0.3333333), wk =   0.0063492
        k(  154) = (  -0.4000000   0.4285714  -0.3333333), wk =   0.0063492
        k(  155) = (   0.4000000  -0.4285714  -0.3333333), wk =   0.0063492
        k(  156) = (  -0.4000000  -0.4285714   0.4444444), wk =   0.0063492
        k(  157) = (  -0.4000000   0.4285714  -0.4444444), wk =   0.0063492
        k(  158) = (   0.4000000  -0.4285714  -0.4444444), wk =   0.0063492

     Dense  grid:  1252071 G-vectors     FFT dimensions: ( 216, 125, 100)

     Smooth grid:   282325 G-vectors     FFT dimensions: ( 125,  75,  60)

     Dynamical RAM for                 wfc:       5.11 MB

     Dynamical RAM for     wfc (w. buffer):    1620.63 MB

     Dynamical RAM for           str. fact:       6.37 MB

     Dynamical RAM for           local pot:       0.00 MB

     Dynamical RAM for          nlocal pot:      12.56 MB

     Dynamical RAM for                qrad:      10.54 MB

     Dynamical RAM for          rho,v,vnew:      20.68 MB

     Dynamical RAM for               rhoin:       6.89 MB

     Dynamical RAM for            rho*nmix:      50.95 MB

     Dynamical RAM for           G-vectors:       6.15 MB

     Dynamical RAM for          h,s,v(r/c):       2.38 MB

     Dynamical RAM for          <psi|beta>:       0.49 MB

     Dynamical RAM for                 psi:      10.22 MB

     Dynamical RAM for                hpsi:      10.22 MB

     Dynamical RAM for                spsi:      10.22 MB

     Dynamical RAM for      wfcinit/wfcrot:      12.72 MB

     Dynamical RAM for           addusdens:     323.20 MB

     Dynamical RAM for          addusforce:     371.09 MB

     Dynamical RAM for         addusstress:     322.40 MB

     Estimated static dynamical RAM per process >       1.71 GB

     Estimated max dynamical RAM per process >       2.08 GB

     Estimated total dynamical RAM >      24.90 GB

     Check: negative core charge=   -0.000003
     Generating pointlists ...
     new r_m :   0.0768 (alat units)  1.4856 (a.u.) for type    1
     new r_m :   0.0915 (alat units)  1.7692 (a.u.) for type    2
     new r_m :   0.0609 (alat units)  1.1769 (a.u.) for type    3
     new r_m :   0.0609 (alat units)  1.1769 (a.u.) for type    4

     Initial potential from superposition of free atoms

     starting charge  188.99132, renormalised to  189.00000
     Starting wfcs are  137 randomized atomic wfcs
     Checking if some PAW data can be deallocated... 
       PAW data deallocated on   10 nodes for type:  1
       PAW data deallocated on    4 nodes for type:  3

     total cpu time spent up to now is     2552.6 secs

     Self-consistent Calculation

     iteration #  1     ecut=   100.00 Ry     beta= 0.40
     Davidson diagonalization with overlap
     ethr =  1.00E-02,  avg # of iterations =  3.0

     negative rho (up, down):  0.000E+00 1.131E-04

     total cpu time spent up to now is     9845.2 secs

     total energy              =   -2123.96403798 Ry
     estimated scf accuracy    <       6.84350830 Ry

     total magnetization       =    19.00 Bohr mag/cell
     absolute magnetization    =    19.00 Bohr mag/cell

     iteration #  2     ecut=   100.00 Ry     beta= 0.40
     Davidson diagonalization with overlap
     ethr =  3.62E-03,  avg # of iterations =  2.0

     negative rho (up, down):  0.000E+00 7.761E-05

     total cpu time spent up to now is    16611.3 secs

     total energy              =   -2122.14061342 Ry
     estimated scf accuracy    <      22.63636959 Ry

     total magnetization       =     9.64 Bohr mag/cell
     absolute magnetization    =    11.37 Bohr mag/cell

     iteration #  3     ecut=   100.00 Ry     beta= 0.40
     Davidson diagonalization with overlap
     ethr =  3.62E-03,  avg # of iterations =  2.2

     negative rho (up, down):  0.000E+00 6.377E-05

     total cpu time spent up to now is    22263.1 secs

     total energy              =   -2123.77900888 Ry
     estimated scf accuracy    <      56.48784084 Ry

     total magnetization       =     5.13 Bohr mag/cell
     absolute magnetization    =     6.86 Bohr mag/cell

     iteration #  4     ecut=   100.00 Ry     beta= 0.40
     Davidson diagonalization with overlap
     ethr =  3.62E-03,  avg # of iterations =  1.7

     negative rho (up, down):  0.000E+00 8.519E-05

     total cpu time spent up to now is    27697.9 secs

     total energy              =   -2125.08335691 Ry
     estimated scf accuracy    <      16.71522384 Ry

     total magnetization       =    12.71 Bohr mag/cell
     absolute magnetization    =    12.91 Bohr mag/cell

     iteration #  5     ecut=   100.00 Ry     beta= 0.40
     Davidson diagonalization with overlap
     ethr =  3.62E-03,  avg # of iterations =  1.8

     negative rho (up, down):  0.000E+00 1.400E-04

     total cpu time spent up to now is    33143.0 secs

     total energy              =   -2125.71088330 Ry
     estimated scf accuracy    <       5.54436952 Ry

     total magnetization       =    15.44 Bohr mag/cell
     absolute magnetization    =    15.57 Bohr mag/cell

     iteration #  6     ecut=   100.00 Ry     beta= 0.40
     Davidson diagonalization with overlap
     ethr =  2.93E-03,  avg # of iterations =  1.5

     negative rho (up, down):  0.000E+00 2.453E-04

     total cpu time spent up to now is    38447.5 secs

     total energy              =   -2126.04594026 Ry
     estimated scf accuracy    <       0.95021094 Ry

     total magnetization       =    19.10 Bohr mag/cell
     absolute magnetization    =    19.10 Bohr mag/cell

     iteration #  7     ecut=   100.00 Ry     beta= 0.40
     Davidson diagonalization with overlap
     ethr =  5.03E-04,  avg # of iterations =  1.1

     negative rho (up, down):  0.000E+00 3.059E-04

     total cpu time spent up to now is    43656.1 secs

     total energy              =   -2126.04624854 Ry
     estimated scf accuracy    <       0.22739580 Ry

     total magnetization       =    19.00 Bohr mag/cell
     absolute magnetization    =    19.00 Bohr mag/cell

     iteration #  8     ecut=   100.00 Ry     beta= 0.40
     Davidson diagonalization with overlap
     c_bands:  1 eigenvalues not converged
     c_bands:  1 eigenvalues not converged
     c_bands:  1 eigenvalues not converged
     c_bands:  1 eigenvalues not converged
     c_bands:  1 eigenvalues not converged
     c_bands:  1 eigenvalues not converged
     c_bands:  1 eigenvalues not converged
     c_bands:  1 eigenvalues not converged
     ethr =  1.20E-04,  avg # of iterations = 11.5

     negative rho (up, down):  0.000E+00 3.646E-04

     total cpu time spent up to now is    50480.8 secs

     total energy              =   -2126.03612645 Ry
     estimated scf accuracy    <       0.69919904 Ry

     total magnetization       =    19.00 Bohr mag/cell
     absolute magnetization    =    19.00 Bohr mag/cell

     iteration #  9     ecut=   100.00 Ry     beta= 0.40
     Davidson diagonalization with overlap
     ethr =  1.20E-04,  avg # of iterations =  1.1

     negative rho (up, down):  0.000E+00 7.004E-04

     total cpu time spent up to now is    55758.0 secs

     total energy              =   -2126.06055955 Ry
     estimated scf accuracy    <       0.14703218 Ry

     total magnetization       =    19.00 Bohr mag/cell
     absolute magnetization    =    19.00 Bohr mag/cell

     iteration # 10     ecut=   100.00 Ry     beta= 0.40
     Davidson diagonalization with overlap
     ethr =  7.78E-05,  avg # of iterations =  2.1

     negative rho (up, down):  0.000E+00 7.333E-04

     total cpu time spent up to now is    61249.3 secs

     total energy              =   -2126.07325805 Ry
     estimated scf accuracy    <       0.09837562 Ry

     total magnetization       =    19.00 Bohr mag/cell
     absolute magnetization    =    19.02 Bohr mag/cell

     iteration # 11     ecut=   100.00 Ry     beta= 0.40
     Davidson diagonalization with overlap
     c_bands:  1 eigenvalues not converged
     ethr =  5.21E-05,  avg # of iterations =  2.3

     negative rho (up, down):  0.000E+00 8.056E-04

     total cpu time spent up to now is    66749.6 secs

     total energy              =   -2126.07468405 Ry
     estimated scf accuracy    <       0.05094956 Ry

     total magnetization       =    19.00 Bohr mag/cell
     absolute magnetization    =    19.02 Bohr mag/cell

     iteration # 12     ecut=   100.00 Ry     beta= 0.40
     Davidson diagonalization with overlap
     c_bands:  1 eigenvalues not converged
     c_bands:  1 eigenvalues not converged
     c_bands:  1 eigenvalues not converged
     c_bands:  1 eigenvalues not converged
     c_bands:  2 eigenvalues not converged
     c_bands:  1 eigenvalues not converged
     c_bands:  1 eigenvalues not converged
     c_bands:  1 eigenvalues not converged
     c_bands:  1 eigenvalues not converged
     c_bands:  1 eigenvalues not converged
     ethr =  2.70E-05,  avg # of iterations =  6.1

     negative rho (up, down):  0.000E+00 8.687E-04

     total cpu time spent up to now is    72827.5 secs

     total energy              =   -2126.07607221 Ry
     estimated scf accuracy    <       0.01280391 Ry

     total magnetization       =    19.00 Bohr mag/cell
     absolute magnetization    =    19.03 Bohr mag/cell

     iteration # 13     ecut=   100.00 Ry     beta= 0.40
     Davidson diagonalization with overlap
     c_bands:  1 eigenvalues not converged
     c_bands:  1 eigenvalues not converged
     c_bands:  1 eigenvalues not converged
     c_bands:  1 eigenvalues not converged
     c_bands:  1 eigenvalues not converged
     c_bands:  1 eigenvalues not converged
     c_bands:  1 eigenvalues not converged
     c_bands:  1 eigenvalues not converged
     c_bands:  1 eigenvalues not converged
     c_bands:  1 eigenvalues not converged
     c_bands:  1 eigenvalues not converged
     c_bands:  1 eigenvalues not converged
     ethr =  6.77E-06,  avg # of iterations = 10.2

     negative rho (up, down):  0.000E+00 8.798E-04

     total cpu time spent up to now is    79820.4 secs

     total energy              =   -2126.07729604 Ry
     estimated scf accuracy    <       0.01160388 Ry

     total magnetization       =    19.00 Bohr mag/cell
     absolute magnetization    =    19.03 Bohr mag/cell

     iteration # 14     ecut=   100.00 Ry     beta= 0.40
     Davidson diagonalization with overlap
     ethr =  6.14E-06,  avg # of iterations =  1.2

     negative rho (up, down):  0.000E+00 8.850E-04

     total cpu time spent up to now is    85140.0 secs

     total energy              =   -2126.07745201 Ry
     estimated scf accuracy    <       0.00400014 Ry

     total magnetization       =    19.00 Bohr mag/cell
     absolute magnetization    =    19.04 Bohr mag/cell

     iteration # 15     ecut=   100.00 Ry     beta= 0.40
     Davidson diagonalization with overlap
     c_bands:  1 eigenvalues not converged
     ethr =  2.12E-06,  avg # of iterations =  3.9

     negative rho (up, down):  0.000E+00 8.780E-04

     total cpu time spent up to now is    90991.5 secs

     total energy              =   -2126.07777858 Ry
     estimated scf accuracy    <       0.00463886 Ry

     total magnetization       =    19.00 Bohr mag/cell
     absolute magnetization    =    19.04 Bohr mag/cell

     iteration # 16     ecut=   100.00 Ry     beta= 0.40
     Davidson diagonalization with overlap
     ethr =  2.12E-06,  avg # of iterations =  1.0

     negative rho (up, down):  0.000E+00 8.739E-04

     total cpu time spent up to now is    96277.4 secs

     total energy              =   -2126.07791174 Ry
     estimated scf accuracy    <       0.00008699 Ry

     total magnetization       =    19.00 Bohr mag/cell
     absolute magnetization    =    19.04 Bohr mag/cell

     iteration # 17     ecut=   100.00 Ry     beta= 0.40
     Davidson diagonalization with overlap
     ethr =  4.60E-08,  avg # of iterations =  8.3

     negative rho (up, down):  0.000E+00 8.689E-04

     total cpu time spent up to now is   111407.2 secs

     total energy              =   -2126.07809205 Ry
     estimated scf accuracy    <       0.00002845 Ry

     total magnetization       =    19.00 Bohr mag/cell
     absolute magnetization    =    19.04 Bohr mag/cell

     iteration # 18     ecut=   100.00 Ry     beta= 0.40
     Davidson diagonalization with overlap
     ethr =  1.51E-08,  avg # of iterations =  1.4

     negative rho (up, down):  0.000E+00 8.654E-04

     total cpu time spent up to now is   116797.6 secs

     total energy              =   -2126.07809409 Ry
     estimated scf accuracy    <       0.00002928 Ry

     total magnetization       =    19.00 Bohr mag/cell
     absolute magnetization    =    19.04 Bohr mag/cell

     iteration # 19     ecut=   100.00 Ry     beta= 0.40
     Davidson diagonalization with overlap
     ethr =  1.51E-08,  avg # of iterations =  1.0

     negative rho (up, down):  0.000E+00 8.577E-04

     total cpu time spent up to now is   122040.5 secs

     total energy              =   -2126.07809525 Ry
     estimated scf accuracy    <       0.00005197 Ry

     total magnetization       =    19.00 Bohr mag/cell
     absolute magnetization    =    19.04 Bohr mag/cell

     iteration # 20     ecut=   100.00 Ry     beta= 0.40
     Davidson diagonalization with overlap
     ethr =  1.51E-08,  avg # of iterations =  1.0

     negative rho (up, down):  0.000E+00 8.577E-04

     total cpu time spent up to now is   127261.8 secs

     total energy              =   -2126.07809729 Ry
     estimated scf accuracy    <       0.00001252 Ry

     total magnetization       =    19.00 Bohr mag/cell
     absolute magnetization    =    19.04 Bohr mag/cell

     iteration # 21     ecut=   100.00 Ry     beta= 0.40
     Davidson diagonalization with overlap
     ethr =  6.62E-09,  avg # of iterations =  1.0

     negative rho (up, down):  0.000E+00 8.583E-04

     total cpu time spent up to now is   132488.8 secs

     total energy              =   -2126.07809752 Ry
     estimated scf accuracy    <       0.00000180 Ry

     total magnetization       =    19.00 Bohr mag/cell
     absolute magnetization    =    19.04 Bohr mag/cell

     iteration # 22     ecut=   100.00 Ry     beta= 0.40
     Davidson diagonalization with overlap
     ethr =  9.54E-10,  avg # of iterations =  2.0

     negative rho (up, down):  0.000E+00 8.588E-04

     total cpu time spent up to now is   137872.7 secs

     total energy              =   -2126.07809770 Ry
     estimated scf accuracy    <       0.00000048 Ry

     total magnetization       =    19.00 Bohr mag/cell
     absolute magnetization    =    19.04 Bohr mag/cell

     iteration # 23     ecut=   100.00 Ry     beta= 0.40
     Davidson diagonalization with overlap
     ethr =  2.56E-10,  avg # of iterations =  3.9

     negative rho (up, down):  0.000E+00 8.590E-04

     total cpu time spent up to now is   144052.0 secs

     total energy              =   -2126.07809781 Ry
     estimated scf accuracy    <       0.00000011 Ry

     total magnetization       =    19.00 Bohr mag/cell
     absolute magnetization    =    19.04 Bohr mag/cell

     iteration # 24     ecut=   100.00 Ry     beta= 0.40
     Davidson diagonalization with overlap
     ethr =  5.72E-11,  avg # of iterations =  3.3

     negative rho (up, down):  0.000E+00 8.596E-04

     total cpu time spent up to now is   150840.2 secs

     total energy              =   -2126.07809785 Ry
     estimated scf accuracy    <       0.00000004 Ry

     total magnetization       =    19.00 Bohr mag/cell
     absolute magnetization    =    19.04 Bohr mag/cell

     iteration # 25     ecut=   100.00 Ry     beta= 0.40
     Davidson diagonalization with overlap
     ethr =  2.07E-11,  avg # of iterations =  2.2

     negative rho (up, down):  0.000E+00 8.593E-04

     total cpu time spent up to now is   156950.6 secs

     total energy              =   -2126.07809787 Ry
     estimated scf accuracy    <       0.00000006 Ry

     total magnetization       =    19.00 Bohr mag/cell
     absolute magnetization    =    19.04 Bohr mag/cell

     iteration # 26     ecut=   100.00 Ry     beta= 0.40
     Davidson diagonalization with overlap
     ethr =  2.07E-11,  avg # of iterations =  2.0

     negative rho (up, down):  0.000E+00 8.593E-04

     total cpu time spent up to now is   162524.8 secs

     total energy              =   -2126.07809788 Ry
     estimated scf accuracy    <       0.00000001 Ry

     total magnetization       =    19.00 Bohr mag/cell
     absolute magnetization    =    19.04 Bohr mag/cell

     iteration # 27     ecut=   100.00 Ry     beta= 0.40
     Davidson diagonalization with overlap
     ethr =  5.63E-12,  avg # of iterations =  2.2

     negative rho (up, down):  0.000E+00 8.593E-04

     total cpu time spent up to now is   168173.8 secs

     total energy              =   -2126.07809788 Ry
     estimated scf accuracy    <          2.3E-09 Ry

     total magnetization       =    19.00 Bohr mag/cell
     absolute magnetization    =    19.04 Bohr mag/cell

     iteration # 28     ecut=   100.00 Ry     beta= 0.40
     Davidson diagonalization with overlap
     ethr =  1.20E-12,  avg # of iterations =  3.4

     negative rho (up, down):  0.000E+00 8.593E-04

     total cpu time spent up to now is   174429.3 secs

     total energy              =   -2126.07809788 Ry
     estimated scf accuracy    <          6.9E-10 Ry

     total magnetization       =    19.00 Bohr mag/cell
     absolute magnetization    =    19.04 Bohr mag/cell

     iteration # 29     ecut=   100.00 Ry     beta= 0.40
     Davidson diagonalization with overlap
     ethr =  3.63E-13,  avg # of iterations =  3.8

     negative rho (up, down):  0.000E+00 8.593E-04

     total cpu time spent up to now is   180629.7 secs

     total energy              =   -2126.07809788 Ry
     estimated scf accuracy    <          9.0E-10 Ry

     total magnetization       =    19.00 Bohr mag/cell
     absolute magnetization    =    19.04 Bohr mag/cell

     iteration # 30     ecut=   100.00 Ry     beta= 0.40
     Davidson diagonalization with overlap
     ethr =  3.63E-13,  avg # of iterations =  2.0

     negative rho (up, down):  0.000E+00 8.593E-04

     Magnetic moment per site:
     atom:    1    charge:    7.9413    magn:    0.0017    constr:    0.0000
     atom:    2    charge:   12.8405    magn:    3.6488    constr:    0.0000
     atom:    3    charge:   12.8609    magn:    3.5593    constr:    0.0000
     atom:    4    charge:   12.8524    magn:    3.6032    constr:    0.0000
     atom:    5    charge:   12.8485    magn:    3.6096    constr:    0.0000
     atom:    6    charge:    0.8167    magn:    0.0118    constr:    0.0000
     atom:    7    charge:    0.8047    magn:    0.0122    constr:    0.0000
     atom:    8    charge:    0.8154    magn:    0.0099    constr:    0.0000
     atom:    9    charge:    0.8060    magn:    0.0123    constr:    0.0000
     atom:   10    charge:    4.1889    magn:    0.1148    constr:    0.0000
     atom:   11    charge:    4.1734    magn:    0.1091    constr:    0.0000
     atom:   12    charge:    4.1642    magn:    0.1622    constr:    0.0000
     atom:   13    charge:    4.1692    magn:    0.1104    constr:    0.0000
     atom:   14    charge:    4.1902    magn:    0.1203    constr:    0.0000
     atom:   15    charge:    4.1893    magn:    0.0867    constr:    0.0000
     atom:   16    charge:    4.1835    magn:    0.1131    constr:    0.0000
     atom:   17    charge:    4.1747    magn:    0.1043    constr:    0.0000
     atom:   18    charge:    4.1840    magn:    0.1303    constr:    0.0000
     atom:   19    charge:    4.1755    magn:    0.1479    constr:    0.0000
     atom:   20    charge:    4.1795    magn:    0.1074    constr:    0.0000
     atom:   21    charge:    4.1872    magn:    0.1569    constr:    0.0000
     atom:   22    charge:    4.1891    magn:    0.1242    constr:    0.0000
     atom:   23    charge:    4.1719    magn:    0.1446    constr:    0.0000
     atom:   24    charge:    4.1786    magn:    0.1081    constr:    0.0000
     atom:   25    charge:    4.1726    magn:    0.1493    constr:    0.0000

     total cpu time spent up to now is   186268.3 secs

     End of self-consistent calculation

 ------ SPIN UP ------------


          k = 0.0000 0.0000 0.0000 ( 35257 PWs)   bands (ev):

   -84.7707 -84.7613 -84.5859 -84.3374 -50.8908 -50.8678 -50.8483 -50.7599
   -50.7133 -50.6872 -50.6714 -50.5537 -50.5108 -50.4093 -50.3344 -50.1486
   -44.0077 -16.2477 -16.1987 -16.0369 -16.0286 -15.9558 -15.8734 -15.6060
   -13.7934 -13.6019 -13.5592 -13.4647 -13.3982 -13.3199 -13.3094 -13.2538
   -13.1946 -13.1368 -13.1047 -13.0410  -4.1357  -3.6317  -3.3446  -3.0986
    -2.1019  -1.9703  -1.6993  -1.6635  -1.3505  -1.1606  -1.0577  -1.0005
    -0.9101  -0.8634  -0.7596  -0.6256   0.0034   0.1121   0.3320   0.5534
     0.6003   0.7125   0.8130   0.9327   0.9487   1.0233   1.0450   1.1628
     1.4139   1.5396   1.6026   1.7958   1.9373   2.0589   2.0822   2.2024
     2.2246   2.3526   2.4897   2.5189   2.6482   2.6959   2.7351   2.7991
     3.0317   3.0861   3.1829   3.2977   3.3396   3.4286   3.4361   3.5722
     3.7515   3.8410   3.9800   4.0079   4.0288   4.1083   4.2704   4.3634
     4.3962   4.4726   4.6277   4.6868   4.7231   4.9449   5.2185   5.5525
     9.7153  11.6264  11.9769  12.5205  12.7765  13.6448  13.8237  13.8930
    13.9484  14.0946

     occupation numbers 
     1.0000   1.0000   1.0000   1.0000   1.0000   1.0000   1.0000   1.0000
     1.0000   1.0000   1.0000   1.0000   1.0000   1.0000   1.0000   1.0000
     1.0000   1.0000   1.0000   1.0000   1.0000   1.0000   1.0000   1.0000
     1.0000   1.0000   1.0000   1.0000   1.0000   1.0000   1.0000   1.0000
     1.0000   1.0000   1.0000   1.0000   1.0000   1.0000   1.0000   1.0000
     1.0000   1.0000   1.0000   1.0000   1.0000   1.0000   1.0000   1.0000
     1.0000   1.0000   1.0000   1.0000   1.0000   1.0000   1.0000   1.0000
     1.0000   1.0000   1.0000   1.0000   1.0000   1.0000   1.0000   1.0000
     1.0000   1.0000   1.0000   1.0000   1.0000   1.0000   1.0000   1.0000
     1.0000   1.0000   1.0000   1.0000   1.0000   1.0000   1.0000   1.0000
     1.0000   1.0000   1.0000   1.0000   1.0000   1.0000   1.0000   1.0000
     1.0000   1.0000   1.0000   1.0000   1.0000   1.0000   1.0000   1.0000
     1.0000   1.0000   1.0000   1.0000   1.0000   1.0000   1.0000   1.0000
     0.0000   0.0000   0.0000   0.0000   0.0000   0.0000   0.0000   0.0000
     0.0000   0.0000

          k = 0.0000 0.0000 0.2298 ( 35253 PWs)   bands (ev):

   -84.7707 -84.7613 -84.5859 -84.3374 -50.8908 -50.8678 -50.8483 -50.7599
   -50.7133 -50.6872 -50.6714 -50.5537 -50.5108 -50.4093 -50.3344 -50.1486
   -44.0077 -16.2489 -16.1874 -16.0580 -16.0185 -15.9386 -15.8652 -15.6055
   -13.8025 -13.6077 -13.5656 -13.4635 -13.3971 -13.3239 -13.3086 -13.2599
   -13.2165 -13.1379 -13.1010 -13.0425  -4.1039  -3.6164  -3.3422  -3.0864
    -2.0889  -1.9599  -1.7126  -1.6260  -1.3507  -1.1680  -1.0499  -0.9941
    -0.8914  -0.8527  -0.7971  -0.5996   0.0152   0.1255   0.3291   0.5389
     0.5923   0.7125   0.7995   0.8616   0.9782   1.0412   1.0833   1.1600
     1.3970   1.5232   1.6413   1.7903   1.9348   2.0429   2.0923   2.1888
     2.2520   2.3431   2.4507   2.5262   2.6011   2.6588   2.7401   2.8171
     3.0067   3.0901   3.1729   3.2568   3.3606   3.3764   3.4587   3.5769
     3.7192   3.8771   3.9692   3.9970   4.0215   4.1099   4.2776   4.3612
     4.3747   4.5037   4.6123   4.6802   4.7378   4.9454   5.2131   5.5447
     9.8596  11.6968  12.0346  12.5513  12.8230  13.6052  13.7391  13.8696
    13.9182  14.0318

     occupation numbers 
     1.0000   1.0000   1.0000   1.0000   1.0000   1.0000   1.0000   1.0000
     1.0000   1.0000   1.0000   1.0000   1.0000   1.0000   1.0000   1.0000
     1.0000   1.0000   1.0000   1.0000   1.0000   1.0000   1.0000   1.0000
     1.0000   1.0000   1.0000   1.0000   1.0000   1.0000   1.0000   1.0000
     1.0000   1.0000   1.0000   1.0000   1.0000   1.0000   1.0000   1.0000
     1.0000   1.0000   1.0000   1.0000   1.0000   1.0000   1.0000   1.0000
     1.0000   1.0000   1.0000   1.0000   1.0000   1.0000   1.0000   1.0000
     1.0000   1.0000   1.0000   1.0000   1.0000   1.0000   1.0000   1.0000
     1.0000   1.0000   1.0000   1.0000   1.0000   1.0000   1.0000   1.0000
     1.0000   1.0000   1.0000   1.0000   1.0000   1.0000   1.0000   1.0000
     1.0000   1.0000   1.0000   1.0000   1.0000   1.0000   1.0000   1.0000
     1.0000   1.0000   1.0000   1.0000   1.0000   1.0000   1.0000   1.0000
     1.0000   1.0000   1.0000   1.0000   1.0000   1.0000   1.0000   1.0000
     0.0000   0.0000   0.0000   0.0000   0.0000   0.0000   0.0000   0.0000
     0.0000   0.0000

          k = 0.0000 0.0000 0.4597 ( 35284 PWs)   bands (ev):

   -84.7707 -84.7613 -84.5859 -84.3374 -50.8908 -50.8678 -50.8484 -50.7599
   -50.7133 -50.6872 -50.6714 -50.5537 -50.5108 -50.4093 -50.3344 -50.1486
   -44.0077 -16.2507 -16.1613 -16.0804 -16.0126 -15.9038 -15.8435 -15.6056
   -13.8259 -13.6306 -13.5738 -13.4632 -13.3948 -13.3375 -13.3073 -13.2770
   -13.2500 -13.1474 -13.0999 -13.0443  -4.0209  -3.5748  -3.3318  -3.0734
    -2.0815  -1.9033  -1.6896  -1.5854  -1.3515  -1.1832  -1.0601  -0.9708
    -0.8614  -0.8350  -0.7976  -0.5779   0.0287   0.1683   0.3433   0.5000
     0.5719   0.6976   0.7834   0.8634   0.9748   1.0508   1.1212   1.1979
     1.3669   1.5282   1.6498   1.7721   1.9175   2.0130   2.0976   2.1493
     2.2657   2.3101   2.3621   2.4705   2.5520   2.6284   2.7198   2.8263
     2.9669   3.0668   3.0986   3.1990   3.2848   3.4152   3.5182   3.5881
     3.6926   3.8992   3.9197   3.9931   4.0512   4.1351   4.2585   4.3429
     4.3791   4.5249   4.6015   4.6771   4.7615   4.9447   5.2020   5.5262
    10.2499  11.8779  12.1614  12.6530  12.9369  13.3645  13.6266  13.7334
    13.8369  13.9419

     occupation numbers 
     1.0000   1.0000   1.0000   1.0000   1.0000   1.0000   1.0000   1.0000
     1.0000   1.0000   1.0000   1.0000   1.0000   1.0000   1.0000   1.0000
     1.0000   1.0000   1.0000   1.0000   1.0000   1.0000   1.0000   1.0000
     1.0000   1.0000   1.0000   1.0000   1.0000   1.0000   1.0000   1.0000
     1.0000   1.0000   1.0000   1.0000   1.0000   1.0000   1.0000   1.0000
     1.0000   1.0000   1.0000   1.0000   1.0000   1.0000   1.0000   1.0000
     1.0000   1.0000   1.0000   1.0000   1.0000   1.0000   1.0000   1.0000
     1.0000   1.0000   1.0000   1.0000   1.0000   1.0000   1.0000   1.0000
     1.0000   1.0000   1.0000   1.0000   1.0000   1.0000   1.0000   1.0000
     1.0000   1.0000   1.0000   1.0000   1.0000   1.0000   1.0000   1.0000
     1.0000   1.0000   1.0000   1.0000   1.0000   1.0000   1.0000   1.0000
     1.0000   1.0000   1.0000   1.0000   1.0000   1.0000   1.0000   1.0000
     1.0000   1.0000   1.0000   1.0000   1.0000   1.0000   1.0000   1.0000
     0.0000   0.0000   0.0000   0.0000   0.0000   0.0000   0.0000   0.0000
     0.0000   0.0000

          k = 0.0000 0.0000 0.6895 ( 35308 PWs)   bands (ev):

   -84.7707 -84.7613 -84.5859 -84.3374 -50.8908 -50.8678 -50.8484 -50.7599
   -50.7134 -50.6872 -50.6714 -50.5537 -50.5108 -50.4093 -50.3344 -50.1486
   -44.0077 -16.2527 -16.1364 -16.0901 -16.0087 -15.8681 -15.8181 -15.6092
   -13.8525 -13.6648 -13.5762 -13.4669 -13.3935 -13.3641 -13.3099 -13.2880
   -13.2703 -13.1535 -13.1077 -13.0466  -3.9210  -3.5197  -3.3152  -3.0883
    -2.0904  -1.8228  -1.6266  -1.5606  -1.3552  -1.1948  -1.1052  -0.9520
    -0.8460  -0.7820  -0.7396  -0.5900   0.0240   0.2246   0.3982   0.4567
     0.5925   0.7020   0.7835   0.9086   1.0039   1.0549   1.1514   1.2103
     1.3618   1.5315   1.5848   1.7510   1.8799   1.9530   1.9897   2.0760
     2.1448   2.2701   2.3541   2.4090   2.5561   2.6299   2.6722   2.8123
     2.9391   2.9652   3.0605   3.1109   3.2777   3.4722   3.5747   3.6145
     3.6878   3.8675   3.9166   4.0106   4.1161   4.1560   4.2365   4.3077
     4.3848   4.5091   4.6150   4.6966   4.7773   4.9420   5.1957   5.5049
    10.7920  12.0822  12.2639  12.7163  12.9144  13.2562  13.4583  13.5659
    13.7260  13.8719

     occupation numbers 
     1.0000   1.0000   1.0000   1.0000   1.0000   1.0000   1.0000   1.0000
     1.0000   1.0000   1.0000   1.0000   1.0000   1.0000   1.0000   1.0000
     1.0000   1.0000   1.0000   1.0000   1.0000   1.0000   1.0000   1.0000
     1.0000   1.0000   1.0000   1.0000   1.0000   1.0000   1.0000   1.0000
     1.0000   1.0000   1.0000   1.0000   1.0000   1.0000   1.0000   1.0000
     1.0000   1.0000   1.0000   1.0000   1.0000   1.0000   1.0000   1.0000
     1.0000   1.0000   1.0000   1.0000   1.0000   1.0000   1.0000   1.0000
     1.0000   1.0000   1.0000   1.0000   1.0000   1.0000   1.0000   1.0000
     1.0000   1.0000   1.0000   1.0000   1.0000   1.0000   1.0000   1.0000
     1.0000   1.0000   1.0000   1.0000   1.0000   1.0000   1.0000   1.0000
     1.0000   1.0000   1.0000   1.0000   1.0000   1.0000   1.0000   1.0000
     1.0000   1.0000   1.0000   1.0000   1.0000   1.0000   1.0000   1.0000
     1.0000   1.0000   1.0000   1.0000   1.0000   1.0000   1.0000   1.0000
     0.0000   0.0000   0.0000   0.0000   0.0000   0.0000   0.0000   0.0000
     0.0000   0.0000

          k = 0.0000 0.0000 0.9194 ( 35336 PWs)   bands (ev):

   -84.7707 -84.7613 -84.5859 -84.3374 -50.8908 -50.8678 -50.8484 -50.7599
   -50.7134 -50.6872 -50.6714 -50.5537 -50.5108 -50.4093 -50.3344 -50.1486
   -44.0077 -16.2546 -16.1265 -16.0866 -16.0067 -15.8429 -15.8021 -15.6144
   -13.8696 -13.6894 -13.5769 -13.4711 -13.3945 -13.3870 -13.3126 -13.2883
   -13.2803 -13.1512 -13.1170 -13.0497  -3.8518  -3.4775  -3.2977  -3.1208
    -2.0958  -1.7775  -1.5825  -1.5323  -1.3582  -1.1942  -1.1573  -0.9299
    -0.8131  -0.7463  -0.7170  -0.6081   0.0200   0.2701   0.3966   0.4654
     0.6635   0.7315   0.8427   0.9620   1.0119   1.0423   1.1423   1.2409
     1.3625   1.4770   1.5053   1.7118   1.7730   1.8821   1.9509   2.0503
     2.0958   2.1700   2.2823   2.4136   2.5607   2.6736   2.7131   2.7854
     2.8677   2.9188   3.0242   3.0797   3.2886   3.4993   3.5838   3.6149
     3.7446   3.8684   3.9095   4.0449   4.1013   4.1932   4.2395   4.2854
     4.3821   4.4803   4.6328   4.7197   4.7811   4.9388   5.1980   5.4884
    11.3643  12.0598  12.2821  12.4892  12.9632  13.3559  13.4499  13.5067
    13.6388  13.7524

     occupation numbers 
     1.0000   1.0000   1.0000   1.0000   1.0000   1.0000   1.0000   1.0000
     1.0000   1.0000   1.0000   1.0000   1.0000   1.0000   1.0000   1.0000
     1.0000   1.0000   1.0000   1.0000   1.0000   1.0000   1.0000   1.0000
     1.0000   1.0000   1.0000   1.0000   1.0000   1.0000   1.0000   1.0000
     1.0000   1.0000   1.0000   1.0000   1.0000   1.0000   1.0000   1.0000
     1.0000   1.0000   1.0000   1.0000   1.0000   1.0000   1.0000   1.0000
     1.0000   1.0000   1.0000   1.0000   1.0000   1.0000   1.0000   1.0000
     1.0000   1.0000   1.0000   1.0000   1.0000   1.0000   1.0000   1.0000
     1.0000   1.0000   1.0000   1.0000   1.0000   1.0000   1.0000   1.0000
     1.0000   1.0000   1.0000   1.0000   1.0000   1.0000   1.0000   1.0000
     1.0000   1.0000   1.0000   1.0000   1.0000   1.0000   1.0000   1.0000
     1.0000   1.0000   1.0000   1.0000   1.0000   1.0000   1.0000   1.0000
     1.0000   1.0000   1.0000   1.0000   1.0000   1.0000   1.0000   1.0000
     0.0000   0.0000   0.0000   0.0000   0.0000   0.0000   0.0000   0.0000
     0.0000   0.0000

          k = 0.0000 0.2391 0.0000 ( 35275 PWs)   bands (ev):

   -84.7707 -84.7613 -84.5859 -84.3374 -50.8908 -50.8678 -50.8484 -50.7599
   -50.7133 -50.6872 -50.6714 -50.5537 -50.5108 -50.4093 -50.3344 -50.1486
   -44.0077 -16.2791 -16.1691 -16.0578 -16.0236 -15.9187 -15.8675 -15.6168
   -13.8041 -13.6114 -13.5589 -13.4771 -13.4092 -13.3156 -13.3029 -13.2516
   -13.1988 -13.1345 -13.1031 -13.0386  -4.0979  -3.6002  -3.3576  -3.0959
    -2.0775  -1.9303  -1.7061  -1.6395  -1.3442  -1.1798  -1.0467  -0.9894
    -0.9199  -0.8313  -0.7455  -0.6132  -0.0078   0.0985   0.3166   0.4953
     0.5635   0.7009   0.7742   0.8503   0.9703   1.0260   1.1420   1.2113
     1.4000   1.5452   1.5872   1.8149   1.9434   2.0005   2.0861   2.1602
     2.1731   2.3233   2.4439   2.5132   2.6194   2.6924   2.7354   2.8600
     3.0358   3.0776   3.1819   3.2303   3.3499   3.3906   3.4809   3.5462
     3.7383   3.8453   3.9046   3.9927   4.0647   4.1174   4.2647   4.3211
     4.3841   4.4587   4.5989   4.6740   4.8272   5.0332   5.3018   5.5609
     9.8720  11.7010  12.0704  12.4740  12.7642  13.5515  13.6868  13.8332
    14.0397  14.1051

     occupation numbers 
     1.0000   1.0000   1.0000   1.0000   1.0000   1.0000   1.0000   1.0000
     1.0000   1.0000   1.0000   1.0000   1.0000   1.0000   1.0000   1.0000
     1.0000   1.0000   1.0000   1.0000   1.0000   1.0000   1.0000   1.0000
     1.0000   1.0000   1.0000   1.0000   1.0000   1.0000   1.0000   1.0000
     1.0000   1.0000   1.0000   1.0000   1.0000   1.0000   1.0000   1.0000
     1.0000   1.0000   1.0000   1.0000   1.0000   1.0000   1.0000   1.0000
     1.0000   1.0000   1.0000   1.0000   1.0000   1.0000   1.0000   1.0000
     1.0000   1.0000   1.0000   1.0000   1.0000   1.0000   1.0000   1.0000
     1.0000   1.0000   1.0000   1.0000   1.0000   1.0000   1.0000   1.0000
     1.0000   1.0000   1.0000   1.0000   1.0000   1.0000   1.0000   1.0000
     1.0000   1.0000   1.0000   1.0000   1.0000   1.0000   1.0000   1.0000
     1.0000   1.0000   1.0000   1.0000   1.0000   1.0000   1.0000   1.0000
     1.0000   1.0000   1.0000   1.0000   1.0000   1.0000   1.0000   1.0000
     0.0000   0.0000   0.0000   0.0000   0.0000   0.0000   0.0000   0.0000
     0.0000   0.0000

          k = 0.0000 0.2391 0.2298 ( 35285 PWs)   bands (ev):

   -84.7707 -84.7613 -84.5859 -84.3374 -50.8908 -50.8678 -50.8484 -50.7599
   -50.7133 -50.6872 -50.6714 -50.5537 -50.5108 -50.4093 -50.3344 -50.1486
   -44.0077 -16.2604 -16.1822 -16.0729 -16.0168 -15.9013 -15.8636 -15.6088
   -13.8132 -13.6177 -13.5720 -13.4686 -13.4076 -13.3340 -13.3041 -13.2545
   -13.2021 -13.1399 -13.0983 -13.0443  -4.0733  -3.5864  -3.3460  -3.0777
    -2.0666  -1.9207  -1.7257  -1.5974  -1.3301  -1.1493  -1.0805  -0.9502
    -0.9261  -0.8566  -0.7852  -0.5691   0.0067   0.1105   0.3084   0.4994
     0.5932   0.7127   0.7647   0.8614   0.9086   1.0156   1.1403   1.2118
     1.3592   1.4981   1.5970   1.7971   1.9143   2.0090   2.0764   2.2112
     2.2289   2.3031   2.4163   2.5448   2.6361   2.6723   2.7258   2.8634
     3.0223   3.0957   3.1556   3.2081   3.3201   3.3580   3.4619   3.5400
     3.7334   3.8343   3.9252   3.9798   4.0132   4.1562   4.2398   4.3269
     4.3702   4.4891   4.5958   4.6992   4.8255   5.0384   5.3004   5.5489
    10.0108  11.7790  12.1303  12.4865  12.8110  13.5675  13.6319  13.8411
    13.9341  14.0420

     occupation numbers 
     1.0000   1.0000   1.0000   1.0000   1.0000   1.0000   1.0000   1.0000
     1.0000   1.0000   1.0000   1.0000   1.0000   1.0000   1.0000   1.0000
     1.0000   1.0000   1.0000   1.0000   1.0000   1.0000   1.0000   1.0000
     1.0000   1.0000   1.0000   1.0000   1.0000   1.0000   1.0000   1.0000
     1.0000   1.0000   1.0000   1.0000   1.0000   1.0000   1.0000   1.0000
     1.0000   1.0000   1.0000   1.0000   1.0000   1.0000   1.0000   1.0000
     1.0000   1.0000   1.0000   1.0000   1.0000   1.0000   1.0000   1.0000
     1.0000   1.0000   1.0000   1.0000   1.0000   1.0000   1.0000   1.0000
     1.0000   1.0000   1.0000   1.0000   1.0000   1.0000   1.0000   1.0000
     1.0000   1.0000   1.0000   1.0000   1.0000   1.0000   1.0000   1.0000
     1.0000   1.0000   1.0000   1.0000   1.0000   1.0000   1.0000   1.0000
     1.0000   1.0000   1.0000   1.0000   1.0000   1.0000   1.0000   1.0000
     1.0000   1.0000   1.0000   1.0000   1.0000   1.0000   1.0000   1.0000
     0.0000   0.0000   0.0000   0.0000   0.0000   0.0000   0.0000   0.0000
     0.0000   0.0000

          k = 0.0000 0.2391 0.4597 ( 35280 PWs)   bands (ev):

   -84.7707 -84.7613 -84.5859 -84.3374 -50.8908 -50.8678 -50.8484 -50.7599
   -50.7133 -50.6872 -50.6714 -50.5537 -50.5108 -50.4093 -50.3344 -50.1486
   -44.0077 -16.2388 -16.1886 -16.0836 -16.0134 -15.8693 -15.8450 -15.6012
   -13.8364 -13.6327 -13.5919 -13.4653 -13.4058 -13.3605 -13.3051 -13.2649
   -13.2288 -13.1494 -13.0931 -13.0493  -3.9959  -3.5468  -3.3288  -3.0490
    -2.0640  -1.8838  -1.6909  -1.5558  -1.3297  -1.1191  -1.1032  -0.9480
    -0.8775  -0.8612  -0.8063  -0.5390   0.0024   0.1541   0.3304   0.4963
     0.5970   0.6793   0.7595   0.8419   0.9148   1.0335   1.1434   1.2361
     1.3164   1.4760   1.5899   1.7569   1.9054   2.0028   2.0613   2.1874
     2.2501   2.3147   2.3346   2.4900   2.6018   2.6560   2.7383   2.8605
     2.9659   3.0484   3.1183   3.1839   3.2495   3.3460   3.4846   3.5402
     3.7174   3.8113   3.9101   3.9548   4.0352   4.1822   4.2267   4.3221
     4.3887   4.4987   4.6204   4.7013   4.8358   5.0467   5.2790   5.5343
    10.3862  11.9619  12.2504  12.5696  12.9363  13.3744  13.5592  13.7607
    13.8083  13.9525

     occupation numbers 
     1.0000   1.0000   1.0000   1.0000   1.0000   1.0000   1.0000   1.0000
     1.0000   1.0000   1.0000   1.0000   1.0000   1.0000   1.0000   1.0000
     1.0000   1.0000   1.0000   1.0000   1.0000   1.0000   1.0000   1.0000
     1.0000   1.0000   1.0000   1.0000   1.0000   1.0000   1.0000   1.0000
     1.0000   1.0000   1.0000   1.0000   1.0000   1.0000   1.0000   1.0000
     1.0000   1.0000   1.0000   1.0000   1.0000   1.0000   1.0000   1.0000
     1.0000   1.0000   1.0000   1.0000   1.0000   1.0000   1.0000   1.0000
     1.0000   1.0000   1.0000   1.0000   1.0000   1.0000   1.0000   1.0000
     1.0000   1.0000   1.0000   1.0000   1.0000   1.0000   1.0000   1.0000
     1.0000   1.0000   1.0000   1.0000   1.0000   1.0000   1.0000   1.0000
     1.0000   1.0000   1.0000   1.0000   1.0000   1.0000   1.0000   1.0000
     1.0000   1.0000   1.0000   1.0000   1.0000   1.0000   1.0000   1.0000
     1.0000   1.0000   1.0000   1.0000   1.0000   1.0000   1.0000   1.0000
     0.0000   0.0000   0.0000   0.0000   0.0000   0.0000   0.0000   0.0000
     0.0000   0.0000

          k = 0.0000 0.2391 0.6895 ( 35285 PWs)   bands (ev):

   -84.7707 -84.7613 -84.5859 -84.3374 -50.8908 -50.8678 -50.8484 -50.7599
   -50.7134 -50.6872 -50.6714 -50.5537 -50.5108 -50.4093 -50.3344 -50.1486
   -44.0077 -16.2362 -16.1778 -16.0812 -16.0112 -15.8406 -15.8169 -15.6002
   -13.8623 -13.6617 -13.6014 -13.4692 -13.4112 -13.3818 -13.3049 -13.2784
   -13.2512 -13.1567 -13.0985 -13.0500  -3.8968  -3.4934  -3.3142  -3.0449
    -2.0798  -1.8172  -1.6215  -1.5281  -1.3391  -1.1496  -1.1035  -0.9572
    -0.8509  -0.7962  -0.7676  -0.5530  -0.0128   0.1961   0.3934   0.4748
     0.6148   0.6927   0.7279   0.8563   0.9702   1.0596   1.1552   1.2654
     1.3307   1.4521   1.5442   1.7097   1.8924   1.9325   1.9987   2.0904
     2.1558   2.2820   2.3124   2.3916   2.5742   2.6734   2.7419   2.8453
     2.9031   2.9541   3.0471   3.1480   3.2347   3.3855   3.5179   3.6074
     3.6972   3.7896   3.8614   4.0129   4.0694   4.1617   4.2519   4.2914
     4.4163   4.4945   4.6525   4.6928   4.8459   5.0582   5.2569   5.5209
    10.9096  12.1634  12.3397  12.6568  12.9311  13.2769  13.4091  13.5881
    13.7205  13.9355

     occupation numbers 
     1.0000   1.0000   1.0000   1.0000   1.0000   1.0000   1.0000   1.0000
     1.0000   1.0000   1.0000   1.0000   1.0000   1.0000   1.0000   1.0000
     1.0000   1.0000   1.0000   1.0000   1.0000   1.0000   1.0000   1.0000
     1.0000   1.0000   1.0000   1.0000   1.0000   1.0000   1.0000   1.0000
     1.0000   1.0000   1.0000   1.0000   1.0000   1.0000   1.0000   1.0000
     1.0000   1.0000   1.0000   1.0000   1.0000   1.0000   1.0000   1.0000
     1.0000   1.0000   1.0000   1.0000   1.0000   1.0000   1.0000   1.0000
     1.0000   1.0000   1.0000   1.0000   1.0000   1.0000   1.0000   1.0000
     1.0000   1.0000   1.0000   1.0000   1.0000   1.0000   1.0000   1.0000
     1.0000   1.0000   1.0000   1.0000   1.0000   1.0000   1.0000   1.0000
     1.0000   1.0000   1.0000   1.0000   1.0000   1.0000   1.0000   1.0000
     1.0000   1.0000   1.0000   1.0000   1.0000   1.0000   1.0000   1.0000
     1.0000   1.0000   1.0000   1.0000   1.0000   1.0000   1.0000   1.0000
     0.0000   0.0000   0.0000   0.0000   0.0000   0.0000   0.0000   0.0000
     0.0000   0.0000

          k = 0.0000 0.2391 0.9194 ( 35271 PWs)   bands (ev):

   -84.7707 -84.7613 -84.5859 -84.3374 -50.8908 -50.8678 -50.8484 -50.7599
   -50.7134 -50.6872 -50.6714 -50.5537 -50.5108 -50.4093 -50.3344 -50.1486
   -44.0077 -16.2493 -16.1565 -16.0740 -16.0106 -15.8218 -15.7941 -15.6082
   -13.8777 -13.6881 -13.5992 -13.4756 -13.4205 -13.3889 -13.3098 -13.2872
   -13.2615 -13.1552 -13.1085 -13.0486  -3.8193  -3.4481  -3.3039  -3.0810
    -2.0819  -1.7725  -1.5710  -1.5100  -1.3458  -1.1741  -1.1411  -0.9424
    -0.8191  -0.7438  -0.7152  -0.5934  -0.0260   0.2260   0.4105   0.4796
     0.6385   0.7081   0.7686   0.9123   0.9893   1.1163   1.1488   1.2872
     1.3714   1.4172   1.4816   1.6879   1.7675   1.8602   1.9452   2.0270
     2.1397   2.1839   2.2791   2.3667   2.5830   2.6709   2.7451   2.7883
     2.8619   2.8999   3.0063   3.1012   3.2642   3.4418   3.5456   3.6443
     3.7196   3.7566   3.8746   4.0135   4.0994   4.1574   4.2397   4.3139
     4.4254   4.4939   4.6366   4.7099   4.8475   5.0520   5.2619   5.5076
    11.4585  12.1763  12.2964  12.5647  12.9125  13.3074  13.4492  13.5357
    13.6637  13.8287

     occupation numbers 
     1.0000   1.0000   1.0000   1.0000   1.0000   1.0000   1.0000   1.0000
     1.0000   1.0000   1.0000   1.0000   1.0000   1.0000   1.0000   1.0000
     1.0000   1.0000   1.0000   1.0000   1.0000   1.0000   1.0000   1.0000
     1.0000   1.0000   1.0000   1.0000   1.0000   1.0000   1.0000   1.0000
     1.0000   1.0000   1.0000   1.0000   1.0000   1.0000   1.0000   1.0000
     1.0000   1.0000   1.0000   1.0000   1.0000   1.0000   1.0000   1.0000
     1.0000   1.0000   1.0000   1.0000   1.0000   1.0000   1.0000   1.0000
     1.0000   1.0000   1.0000   1.0000   1.0000   1.0000   1.0000   1.0000
     1.0000   1.0000   1.0000   1.0000   1.0000   1.0000   1.0000   1.0000
     1.0000   1.0000   1.0000   1.0000   1.0000   1.0000   1.0000   1.0000
     1.0000   1.0000   1.0000   1.0000   1.0000   1.0000   1.0000   1.0000
     1.0000   1.0000   1.0000   1.0000   1.0000   1.0000   1.0000   1.0000
     1.0000   1.0000   1.0000   1.0000   1.0000   1.0000   1.0000   1.0000
     0.0000   0.0000   0.0000   0.0000   0.0000   0.0000   0.0000   0.0000
     0.0000   0.0000

          k = 0.0000 0.4781 0.0000 ( 35227 PWs)   bands (ev):

   -84.7707 -84.7613 -84.5859 -84.3374 -50.8908 -50.8678 -50.8484 -50.7599
   -50.7133 -50.6872 -50.6714 -50.5537 -50.5108 -50.4093 -50.3344 -50.1487
   -44.0077 -16.3228 -16.1247 -16.0704 -16.0213 -15.8915 -15.8233 -15.6458
   -13.8253 -13.6311 -13.5786 -13.4943 -13.4074 -13.3292 -13.2861 -13.2459
   -13.2104 -13.1276 -13.0996 -13.0334  -4.0099  -3.5328  -3.3805  -3.0996
    -2.0099  -1.8278  -1.7053  -1.5911  -1.3309  -1.2221  -1.0374  -0.9442
    -0.9150  -0.7748  -0.7122  -0.5980  -0.0673   0.0758   0.2452   0.3993
     0.4993   0.6248   0.7032   0.8052   0.9435   1.0271   1.2154   1.3064
     1.4294   1.5529   1.5810   1.7881   1.8939   1.9820   2.0646   2.1004
     2.1409   2.3017   2.3986   2.4737   2.5701   2.6908   2.7217   2.9080
     2.9773   3.0739   3.1337   3.2220   3.2684   3.4076   3.4497   3.5378
     3.7297   3.7997   3.8625   3.9903   4.0343   4.1482   4.2295   4.2775
     4.3729   4.4507   4.5739   4.6780   4.9611   5.1888   5.4620   5.5880
    10.2964  11.8742  12.1605  12.3680  12.7412  13.3326  13.6530  13.7679
    13.8586  14.1100

     occupation numbers 
     1.0000   1.0000   1.0000   1.0000   1.0000   1.0000   1.0000   1.0000
     1.0000   1.0000   1.0000   1.0000   1.0000   1.0000   1.0000   1.0000
     1.0000   1.0000   1.0000   1.0000   1.0000   1.0000   1.0000   1.0000
     1.0000   1.0000   1.0000   1.0000   1.0000   1.0000   1.0000   1.0000
     1.0000   1.0000   1.0000   1.0000   1.0000   1.0000   1.0000   1.0000
     1.0000   1.0000   1.0000   1.0000   1.0000   1.0000   1.0000   1.0000
     1.0000   1.0000   1.0000   1.0000   1.0000   1.0000   1.0000   1.0000
     1.0000   1.0000   1.0000   1.0000   1.0000   1.0000   1.0000   1.0000
     1.0000   1.0000   1.0000   1.0000   1.0000   1.0000   1.0000   1.0000
     1.0000   1.0000   1.0000   1.0000   1.0000   1.0000   1.0000   1.0000
     1.0000   1.0000   1.0000   1.0000   1.0000   1.0000   1.0000   1.0000
     1.0000   1.0000   1.0000   1.0000   1.0000   1.0000   1.0000   1.0000
     1.0000   1.0000   1.0000   1.0000   1.0000   1.0000   1.0000   1.0000
     0.0000   0.0000   0.0000   0.0000   0.0000   0.0000   0.0000   0.0000
     0.0000   0.0000

          k = 0.0000 0.4781 0.2298 ( 35266 PWs)   bands (ev):

   -84.7707 -84.7613 -84.5859 -84.3374 -50.8908 -50.8678 -50.8484 -50.7599
   -50.7133 -50.6872 -50.6714 -50.5537 -50.5108 -50.4093 -50.3344 -50.1487
   -44.0077 -16.3075 -16.1423 -16.0740 -16.0179 -15.8820 -15.8164 -15.6318
   -13.8324 -13.6405 -13.5893 -13.4857 -13.4144 -13.3409 -13.2947 -13.2496
   -13.2045 -13.1351 -13.0947 -13.0392  -3.9896  -3.5156  -3.3604  -3.0827
    -1.9973  -1.8229  -1.7130  -1.5603  -1.3155  -1.2075  -1.0090  -0.9742
    -0.8997  -0.8098  -0.7449  -0.5566  -0.0658   0.0822   0.2445   0.4078
     0.5577   0.6570   0.6973   0.7818   0.9498   0.9679   1.2010   1.2687
     1.3643   1.4887   1.5727   1.7584   1.9115   1.9845   2.0510   2.1549
     2.2199   2.3082   2.4057   2.5144   2.5918   2.6571   2.7401   2.8725
     2.9677   3.0678   3.1344   3.1906   3.2556   3.3638   3.3985   3.5346
     3.7162   3.7874   3.9069   3.9681   3.9948   4.1361   4.1999   4.3235
     4.3607   4.4642   4.5866   4.7063   4.9833   5.1710   5.4764   5.5698
    10.4194  11.9467  12.2036  12.4126  12.7772  13.3965  13.5889  13.7608
    13.9035  14.0173

     occupation numbers 
     1.0000   1.0000   1.0000   1.0000   1.0000   1.0000   1.0000   1.0000
     1.0000   1.0000   1.0000   1.0000   1.0000   1.0000   1.0000   1.0000
     1.0000   1.0000   1.0000   1.0000   1.0000   1.0000   1.0000   1.0000
[...]
     atom    8 type  4   force =    -0.01283642   -0.00831855   -0.00783856
     atom    9 type  4   force =     0.01874986    0.00043897   -0.01908664
     atom   10 type  3   force =     0.00010775    0.00366516    0.00598196
     atom   11 type  3   force =     0.00369945   -0.00210810   -0.00267809
     atom   12 type  3   force =    -0.00278531   -0.00305717   -0.00628704
     atom   13 type  3   force =    -0.00079631    0.00275289   -0.00224153
     atom   14 type  3   force =    -0.03613245    0.00272471    0.00604308
     atom   15 type  3   force =     0.03327093   -0.01784020   -0.00407550
     atom   16 type  3   force =     0.03788402   -0.00147879   -0.00839900
     atom   17 type  3   force =    -0.03535158    0.01777409    0.00092015
     atom   18 type  3   force =     0.01101988    0.02217294   -0.00403071
     atom   19 type  3   force =    -0.00820911   -0.01735093   -0.01468867
     atom   20 type  3   force =     0.00078468    0.03260052    0.01133213
     atom   21 type  3   force =     0.00244599   -0.01894639    0.00574158
     atom   22 type  3   force =    -0.00897465   -0.01900619    0.00666789
     atom   23 type  3   force =     0.00982862    0.01286496    0.01328796
     atom   24 type  3   force =    -0.00183362   -0.03020889   -0.01423326
     atom   25 type  3   force =    -0.00561256    0.02069639   -0.00905160
     The non-local contrib.  to forces
     atom    1 type  2   force =    -0.07287828    0.00184235   -0.02877277
     atom    2 type  1   force =     0.06025927   -0.13092283   -0.04743666
     atom    3 type  1   force =    -0.00065177   -0.09564590    0.16130540
     atom    4 type  1   force =    -0.04863124    0.11210304    0.16293006
     atom    5 type  1   force =     0.00793874    0.11366242   -0.06269388
     atom    6 type  4   force =    -0.02262896    0.06867659    0.03421588
     atom    7 type  4   force =    -0.05084347    0.01982780   -0.03515976
     atom    8 type  4   force =    -0.01676262   -0.04787441   -0.04297057
     atom    9 type  4   force =     0.04107198   -0.00840195    0.02815631
     atom   10 type  3   force =    -0.34371550   -0.10905518   -1.20207246
     atom   11 type  3   force =    -0.04624902    0.17787406   -1.42433060
     atom   12 type  3   force =     0.45502116    0.11851843    1.20038633
     atom   13 type  3   force =    -0.03010867   -0.21136769    1.41319702
     atom   14 type  3   force =     1.33854487   -0.16009743   -0.56101499
     atom   15 type  3   force =    -1.21637582    0.67906949   -0.09497324
     atom   16 type  3   force =    -1.39420650    0.11762757    0.57910500
     atom   17 type  3   force =     1.17722370   -0.69960353    0.23323694
     atom   18 type  3   force =    -0.40060632   -1.33551207    0.66297801
     atom   19 type  3   force =     0.52421071    0.74573268    0.97648228
     atom   20 type  3   force =    -0.05002752   -1.44647808   -0.99544919
     atom   21 type  3   force =    -0.11092325    0.99808688   -0.67074372
     atom   22 type  3   force =     0.34923599    1.25189973   -0.71954935
     atom   23 type  3   force =    -0.56695722   -0.68314430   -1.01569897
     atom   24 type  3   force =     0.08134852    1.45969945    1.04954378
     atom   25 type  3   force =     0.28749717   -0.96705294    0.68684678
     The ionic contribution  to forces
     atom    1 type  2   force =    -1.83965872    3.49871646    2.42828938
     atom    2 type  1   force =    13.47030006   -0.29886034   -0.95129090
     atom    3 type  1   force =     3.94222452   -6.58993969   -3.80561680
     atom    4 type  1   force =   -10.37001572   -3.85124527    3.17343955
     atom    5 type  1   force =    -7.55068895    8.23731917    1.65519698
     atom    6 type  4   force =    -0.16047369    1.50937069   -0.79793758
     atom    7 type  4   force =     3.77388650   -0.02482602    1.25282564
     atom    8 type  4   force =     1.33418339   -2.64318762    0.77726714
     atom    9 type  4   force =    -3.95064180    0.72901908   -1.50064534
     atom   10 type  3   force =    -0.60977425    1.74680540   -1.45252454
     atom   11 type  3   force =     8.36999766   -2.22774934    2.04484842
     atom   12 type  3   force =     1.83019781   -7.12356859   -1.30208795
     atom   13 type  3   force =    -8.53920394    3.53665813   -2.09035489
     atom   14 type  3   force =     1.32700964    0.55609010    7.20258292
     atom   15 type  3   force =    -0.31789640   -3.91854629    2.51168646
     atom   16 type  3   force =    -0.55311039   -0.60690829   -7.61105064
     atom   17 type  3   force =     0.20031757    6.72024541   -3.89398915
     atom   18 type  3   force =    -1.03216120    8.06786677    4.01332037
     atom   19 type  3   force =     5.16415806   -0.61012112   -4.41344643
     atom   20 type  3   force =     2.95882060    2.31888938    8.79443170
     atom   21 type  3   force =    -9.80958999   -0.69201629    0.45195616
     atom   22 type  3   force =     2.19766515   -5.96408775   -1.40666374
     atom   23 type  3   force =    -3.95408637    0.92740137    4.89332628
     atom   24 type  3   force =    -3.86237677   -4.55262349   -8.89858031
     atom   25 type  3   force =     7.98091722    1.25529812   -1.07498274
     The local contribution  to forces
     atom    1 type  2   force =     1.91135490   -3.50584794   -2.38787358
     atom    2 type  1   force =   -13.53222841    0.42271597    0.99709469
     atom    3 type  1   force =    -3.93793986    6.67642737    3.64540741
     atom    4 type  1   force =    10.41865393    3.74404558   -3.33091576
     atom    5 type  1   force =     7.54148202   -8.34752657   -1.59364295
     atom    6 type  4   force =     0.19529005   -1.56264002    0.77776718
     atom    7 type  4   force =    -3.74549822    0.00819036   -1.20085668
     atom    8 type  4   force =    -1.33039962    2.67948466   -0.74539914
     atom    9 type  4   force =     3.93132164   -0.72036676    1.45381949
     atom   10 type  3   force =     0.95118056   -1.63497044    2.65033387
     atom   11 type  3   force =    -8.32114042    2.04948043   -0.63553668
     atom   12 type  3   force =    -2.28442349    7.00291850    0.10577204
     atom   13 type  3   force =     8.56898200   -3.32464826    0.68710822
     atom   14 type  3   force =    -2.69092470   -0.39467901   -6.64087916
     atom   15 type  3   force =     1.55789073    3.22763992   -2.42220183
     atom   16 type  3   force =     1.97395583    0.48882890    7.02908860
     atom   17 type  3   force =    -1.40342605   -6.00924296    3.66421678
     atom   18 type  3   force =     1.44092509   -6.72207271   -4.67489340
     atom   19 type  3   force =    -5.69215956   -0.14704999    3.43088853
     atom   20 type  3   force =    -2.90865458   -0.85187403   -7.79665287
     atom   21 type  3   force =     9.92221729   -0.31673741    0.21863819
     atom   22 type  3   force =    -2.55350802    4.70432263    2.12696173
     atom   23 type  3   force =     4.52612263   -0.23673827   -3.87327759
     atom   24 type  3   force =     3.78018815    3.07482468    7.84436304
     atom   25 type  3   force =    -8.27164270   -0.27555182    0.38514533
     The core correction contribution to forces
     atom    1 type  2   force =     0.00000000    0.00000000    0.00000000
     atom    2 type  1   force =    -0.00234571    0.00198586    0.00109419
     atom    3 type  1   force =     0.00036666    0.00137315   -0.00100854
     atom    4 type  1   force =     0.00258678   -0.00095404   -0.00180014
     atom    5 type  1   force =    -0.00108778    0.00052908   -0.00103818
     atom    6 type  4   force =     0.00240455   -0.00421239   -0.00221403
     atom    7 type  4   force =     0.00356503   -0.00154323    0.00132312
     atom    8 type  4   force =     0.00014527    0.00325715    0.00326428
     atom    9 type  4   force =    -0.00300427    0.00018940   -0.00041836
     atom   10 type  3   force =     0.00241720    0.00088319    0.01024280
     atom   11 type  3   force =     0.00108704   -0.00171176    0.01234432
     atom   12 type  3   force =    -0.00357968   -0.00093223   -0.01036012
     atom   13 type  3   force =    -0.00047234    0.00211309   -0.01218617
     atom   14 type  3   force =    -0.01076174    0.00141129    0.00535504
     atom   15 type  3   force =     0.00965963   -0.00600239    0.00141057
     atom   16 type  3   force =     0.01124484   -0.00102694   -0.00554080
     atom   17 type  3   force =    -0.00945755    0.00637760   -0.00254721
     atom   18 type  3   force =     0.00286172    0.01189305   -0.00543391
     atom   19 type  3   force =    -0.00442076   -0.00590603   -0.00861689
     atom   20 type  3   force =     0.00065196    0.01205998    0.00900695
     atom   21 type  3   force =     0.00073711   -0.00828479    0.00588609
     atom   22 type  3   force =    -0.00236844   -0.01113957    0.00592078
     atom   23 type  3   force =     0.00474640    0.00535304    0.00893466
     atom   24 type  3   force =    -0.00098860   -0.01211393   -0.00955605
     atom   25 type  3   force =    -0.00238739    0.00799768   -0.00606541
     The Hubbard contrib.    to forces
     atom    1 type  2   force =     0.00000000    0.00000000    0.00000000
     atom    2 type  1   force =     0.00000000    0.00000000    0.00000000
     atom    3 type  1   force =     0.00000000    0.00000000    0.00000000
     atom    4 type  1   force =     0.00000000    0.00000000    0.00000000
     atom    5 type  1   force =     0.00000000    0.00000000    0.00000000
     atom    6 type  4   force =     0.00000000    0.00000000    0.00000000
     atom    7 type  4   force =     0.00000000    0.00000000    0.00000000
     atom    8 type  4   force =     0.00000000    0.00000000    0.00000000
     atom    9 type  4   force =     0.00000000    0.00000000    0.00000000
     atom   10 type  3   force =     0.00000000    0.00000000    0.00000000
     atom   11 type  3   force =     0.00000000    0.00000000    0.00000000
     atom   12 type  3   force =     0.00000000    0.00000000    0.00000000
     atom   13 type  3   force =     0.00000000    0.00000000    0.00000000
     atom   14 type  3   force =     0.00000000    0.00000000    0.00000000
     atom   15 type  3   force =     0.00000000    0.00000000    0.00000000
     atom   16 type  3   force =     0.00000000    0.00000000    0.00000000
     atom   17 type  3   force =     0.00000000    0.00000000    0.00000000
     atom   18 type  3   force =     0.00000000    0.00000000    0.00000000
     atom   19 type  3   force =     0.00000000    0.00000000    0.00000000
     atom   20 type  3   force =     0.00000000    0.00000000    0.00000000
     atom   21 type  3   force =     0.00000000    0.00000000    0.00000000
     atom   22 type  3   force =     0.00000000    0.00000000    0.00000000
     atom   23 type  3   force =     0.00000000    0.00000000    0.00000000
     atom   24 type  3   force =     0.00000000    0.00000000    0.00000000
     atom   25 type  3   force =     0.00000000    0.00000000    0.00000000
     The SCF correction term to forces
     atom    1 type  2   force =    -0.00000480   -0.00000222   -0.00000076
     atom    2 type  1   force =     0.00000201    0.00000051    0.00000094
     atom    3 type  1   force =    -0.00000119   -0.00000032    0.00000084
     atom    4 type  1   force =     0.00000466    0.00000256    0.00000262
     atom    5 type  1   force =    -0.00000033    0.00000243   -0.00000044
     atom    6 type  4   force =    -0.00000226    0.00000109   -0.00000082
     atom    7 type  4   force =     0.00000108   -0.00000051    0.00000041
     atom    8 type  4   force =    -0.00000275    0.00000176   -0.00000054
     atom    9 type  4   force =     0.00000239   -0.00000071    0.00000099
     atom   10 type  3   force =    -0.00000018    0.00000228    0.00000201
     atom   11 type  3   force =     0.00000427   -0.00000140   -0.00000382
     atom   12 type  3   force =    -0.00000103    0.00000681    0.00000239
     atom   13 type  3   force =     0.00000672   -0.00000230   -0.00000598
     atom   14 type  3   force =    -0.00000043   -0.00000016   -0.00000100
     atom   15 type  3   force =    -0.00000712   -0.00000084    0.00000227
     atom   16 type  3   force =     0.00000033    0.00000006   -0.00000143
     atom   17 type  3   force =    -0.00000916   -0.00000234    0.00000252
     atom   18 type  3   force =     0.00000068   -0.00000201   -0.00000206
     atom   19 type  3   force =     0.00000252   -0.00000639    0.00000358
     atom   20 type  3   force =    -0.00000569    0.00000335   -0.00000473
     atom   21 type  3   force =     0.00000491    0.00000530    0.00000459
     atom   22 type  3   force =     0.00000076   -0.00000115   -0.00000180
     atom   23 type  3   force =     0.00000327   -0.00000679    0.00000330
     atom   24 type  3   force =    -0.00000484    0.00000448   -0.00000399
     atom   25 type  3   force =     0.00000322    0.00000544    0.00000417

     Total force =     0.117993     Total SCF correction =     0.000029


     Computing stress (Cartesian axis) and pressure


     negative rho (up, down):  0.000E+00 8.593E-04
          total   stress  (Ry/bohr**3)                   (kbar)     P=       72.82
   0.00035777   0.00001300   0.00004680           52.63        1.91        6.88
   0.00001300   0.00069223  -0.00011797            1.91      101.83      -17.35
   0.00004680  -0.00011797   0.00043497            6.88      -17.35       63.99

     kinetic stress (kbar)  27565.04     73.90    -41.05
                               73.90  27718.82     -9.60
                              -41.05     -9.60  27649.57

     local   stress (kbar)  -7849.62   3778.12  -7729.23
                             3778.12 -15147.33    673.14
                            -7729.23    673.14  -5013.06

     nonloc. stress (kbar)  -7072.31      7.84      4.22
                                7.84  -7043.78     -4.45
                                4.22     -4.45  -7051.90

     hartree stress (kbar)  14578.44  -1406.56   3248.91
                            -1406.56  18427.26   -205.45
                             3248.91   -205.45  13923.55

     exc-cor stress (kbar)  -2911.94     -3.38      3.32
                               -3.38  -2916.45     -1.12
                                3.32     -1.12  -2916.69

     corecor stress (kbar)  -3223.24      0.21     -1.06
                                0.21  -3223.76      0.80
                               -1.06      0.80  -3223.43

     ewald   stress (kbar) -21033.74  -2448.23   4521.77
                            -2448.23 -17712.93   -470.68
                             4521.77   -470.68 -23304.05

     hubbard stress (kbar)      0.00      0.00      0.00
                                0.00      0.00      0.00
                                0.00      0.00      0.00

     DFT-D   stress (kbar)      0.00      0.00      0.00
                                0.00      0.00      0.00
                                0.00      0.00      0.00

     XDM     stress (kbar)      0.00      0.00      0.00
                                0.00      0.00      0.00
                                0.00      0.00      0.00

     dft-nl  stress (kbar)      0.00      0.00      0.00
                                0.00      0.00      0.00
                                0.00      0.00      0.00

     TS-vdW  stress (kbar)      0.00      0.00      0.00
                                0.00      0.00      0.00
                                0.00      0.00      0.00



     init_run     :   1986.36s CPU   2528.97s WALL (       1 calls)
     electrons    : 147617.69s CPU 183715.83s WALL (       1 calls)
     forces       :    331.18s CPU    332.58s WALL (       1 calls)
     stress       :    910.12s CPU   1246.47s WALL (       1 calls)

     Called by init_run:
     wfcinit      :   1966.82s CPU   2504.19s WALL (       1 calls)
     wfcinit:atom :      1.59s CPU      2.02s WALL (     316 calls)
     wfcinit:wfcr :   1956.68s CPU   2490.91s WALL (     316 calls)
     potinit      :      7.09s CPU      9.86s WALL (       1 calls)
     hinit0       :      7.69s CPU      9.54s WALL (       1 calls)

     Called by electrons:
     c_bands      : 123878.27s CPU 154620.76s WALL (      30 calls)
     sum_band     :  23501.04s CPU  28792.59s WALL (      30 calls)
     v_of_rho     :     71.40s CPU     85.40s WALL (      31 calls)
     v_h          :      4.91s CPU      5.78s WALL (      31 calls)
     v_xc         :     71.56s CPU     84.71s WALL (      33 calls)
     newd         :     83.04s CPU    115.85s WALL (      31 calls)
     PAW_pot      :     30.77s CPU     38.16s WALL (      31 calls)
     mix_rho      :     43.49s CPU     51.24s WALL (      30 calls)

     Called by c_bands:
     init_us_2    :    178.26s CPU    236.98s WALL (   19908 calls)
     cegterg      : 122785.19s CPU 153223.27s WALL (    9480 calls)

     Called by sum_band:
     sum_band:wei :      0.49s CPU      0.64s WALL (      30 calls)
     sum_band:loo :  23295.37s CPU  28520.52s WALL (      30 calls)
     sum_band:buf :     50.06s CPU     55.59s WALL (    9480 calls)
     sum_band:ini :     75.31s CPU    103.36s WALL (    9480 calls)
     sum_band:cal :   1823.16s CPU   2217.02s WALL (    9480 calls)
     sum_band:bec :      6.71s CPU      7.17s WALL (    9480 calls)
     addusdens    :    164.81s CPU    226.74s WALL (      30 calls)
     addusd:skk   :      1.03s CPU      1.32s WALL (      90 calls)
     addusd:dgemm :     50.15s CPU     81.73s WALL (     180 calls)
     addusd:qvan2 :    111.27s CPU    138.92s WALL (     180 calls)

     Called by *egterg:
     cdiaghg      :   3421.54s CPU   4342.19s WALL (   38035 calls)
     cegterg:over :   5730.10s CPU   7008.52s WALL (   28555 calls)
     cegterg:upda :   1088.77s CPU   1399.40s WALL (   28555 calls)
     cegterg:last :   2449.70s CPU   3140.54s WALL (   17517 calls)
     h_psi        : 104709.26s CPU 130795.97s WALL (   38351 calls)
     s_psi        :   2344.03s CPU   2989.23s WALL (   38351 calls)
     g_psi        :     17.89s CPU     22.02s WALL (   28555 calls)

     Called by h_psi:
     h_psi:calbec :   4912.89s CPU   6059.26s WALL (   38351 calls)
     vloc_psi     :  97313.75s CPU 121493.83s WALL (   38351 calls)
     add_vuspsi   :   2408.91s CPU   3148.32s WALL (   38351 calls)

     General routines
     calbec       :   7117.71s CPU   8687.67s WALL (   49411 calls)
     fft          :    114.41s CPU    131.46s WALL (     813 calls)
     ffts         :      9.17s CPU     11.30s WALL (     122 calls)
     fftw         : 118264.45s CPU 147237.99s WALL ( 6096346 calls)
     interpolate  :     10.60s CPU     12.81s WALL (      62 calls)

     Parallel routines
     fft_scatt_xy :    500.05s CPU    518.06s WALL ( 6097281 calls)
     fft_scatt_yz : 114952.16s CPU 143825.94s WALL ( 6097281 calls)

     PAW routines
     PAW_pot      :     30.77s CPU     38.16s WALL (      31 calls)

     PWSCF        :   1d17h54m CPU   2d 4h10m WALL


   This run was terminated on:   9:31:48  17Jan2023            

=------------------------------------------------------------------------------=
   JOB DONE.
=------------------------------------------------------------------------------=
Note: The following floating-point exceptions are signalling: IEEE_UNDERFLOW_FLAG IEEE_DENORMAL
Note: The following floating-point exceptions are signalling: IEEE_DENORMAL
Note: The following floating-point exceptions are signalling: IEEE_DENORMAL
Note: The following floating-point exceptions are signalling: IEEE_DENORMAL
Note: The following floating-point exceptions are signalling: IEEE_DENORMAL
Note: The following floating-point exceptions are signalling: IEEE_DENORMAL
Note: The following floating-point exceptions are signalling: IEEE_DENORMAL
Note: The following floating-point exceptions are signalling: IEEE_DENORMAL
Note: The following floating-point exceptions are signalling: IEEE_DENORMAL
