
     Program PWSCF v.6.7MaX starts on 29Dec2022 at  0:40:59 

     This program is part of the open-source Quantum ESPRESSO suite
     for quantum simulation of materials; please cite
         "P. Giannozzi et al., J. Phys.:Condens. Matter 21 395502 (2009);
         "P. Giannozzi et al., J. Phys.:Condens. Matter 29 465901 (2017);
          URL http://www.quantum-espresso.org", 
     in publications or presentations arising from this work. More details at
     http://www.quantum-espresso.org/quote

     Parallel version (MPI), running on    32 processors

     MPI processes distributed on     2 nodes
     R & G space division:  proc/nbgrp/npool/nimage =      32
     Reading input from scale_2dab-04.in

     Current dimensions of program PWSCF are:
     Max number of different atomic species (ntypx) = 10
     Max number of k-points (npk) =  40000
     Max angular momentum in pseudopotentials (lmaxx) =  3
     Message from routine read_pp_mesh:
     mesh size missing, using the one in header
     file Fe.pbe-spn-kjpaw_psl.0.2.1.UPF: wavefunction(s)  3D renormalized
     file O.pbe-n-kjpaw_psl.0.1.UPF: wavefunction(s)  2P renormalized

     Subspace diagonalization in iterative solution of the eigenvalue problem:
     a serial algorithm will be used


     Parallelization info
     --------------------
     sticks:   dense  smooth     PW     G-vecs:    dense   smooth      PW
     Min         662     245     66                43200     9735    1366
     Max         663     246     67                43203     9738    1369
     Sum       21211    7849   2123              1382463   311535   43725



     bravais-lattice index     =            0
     lattice parameter (alat)  =      20.3206  a.u.
     unit-cell volume          =    2306.7820 (a.u.)^3
     number of atoms/cell      =           25
     number of atomic types    =            4
     number of electrons       =       189.00
     number of Kohn-Sham states=          114
     kinetic-energy cutoff     =     100.0000  Ry
     charge density cutoff     =    1080.0000  Ry
     scf convergence threshold =      2.0E-10
     mixing beta               =       0.4000
     number of iterations used =            8  plain     mixing
     Exchange-correlation= PBE
                           (   1   4   3   4   0   0   0)

     celldm(1)=  20.320559  celldm(2)=   0.000000  celldm(3)=   0.000000
     celldm(4)=   0.000000  celldm(5)=   0.000000  celldm(6)=   0.000000

     crystal axes: (cart. coord. in units of alat)
               a(1) = (   1.000000   0.000000   0.000000 )  
               a(2) = (   0.000000   0.597590   0.000000 )  
               a(3) = (   0.000000   0.000000   0.460041 )  

     reciprocal axes: (cart. coord. in units 2 pi/alat)
               b(1) = (  1.000000  0.000000  0.000000 )  
               b(2) = (  0.000000  1.673388  0.000000 )  
               b(3) = (  0.000000  0.000000  2.173720 )  


     PseudoPot. # 1 for Fe read from file:
     /opt/QEpot/SSSP_precision_pseudos/Fe.pbe-spn-kjpaw_psl.0.2.1.UPF
     MD5 check sum: e86618425769142926afa95317d90200
     Pseudo is Projector augmented-wave + core cor, Zval = 16.0
     Generated using "atomic" code by A. Dal Corso  v.5.0.99 svn rev. 10869
     Shape of augmentation charge: PSQ
     Using radial grid of 1191 points,  6 beta functions with: 
                l(1) =   0
                l(2) =   0
                l(3) =   1
                l(4) =   1
                l(5) =   2
                l(6) =   2
     Q(r) pseudized with 0 coefficients 


     PseudoPot. # 2 for Na read from file:
     /opt/QEpot/SSSP_precision_pseudos/Na_ONCV_PBE-1.0.oncvpsp.upf
     MD5 check sum: 24a298df0a6742ae313db96548fdb2a4
     Pseudo is Norm-conserving, Zval =  9.0
     Generated using ONCVPSP code by D. R. Hamann
     Using radial grid of 1992 points,  4 beta functions with: 
                l(1) =   0
                l(2) =   0
                l(3) =   1
                l(4) =   1

     PseudoPot. # 3 for O  read from file:
     /opt/QEpot/SSSP_precision_pseudos/O.pbe-n-kjpaw_psl.0.1.UPF
     MD5 check sum: 0234752ac141de4415c5fc33072bef88
     Pseudo is Projector augmented-wave + core cor, Zval =  6.0
     Generated using "atomic" code by A. Dal Corso  v.5.0.99 svn rev. 10869
     Shape of augmentation charge: BESSEL
     Using radial grid of 1095 points,  4 beta functions with: 
                l(1) =   0
                l(2) =   0
                l(3) =   1
                l(4) =   1
     Q(r) pseudized with 0 coefficients 


     PseudoPot. # 4 for P  read from file:
     /opt/QEpot/SSSP_precision_pseudos/P.pbe-n-rrkjus_psl.1.0.0.UPF
     MD5 check sum: 8b930f418f0a4573dca56cd030ffe088
     Pseudo is Ultrasoft + core correction, Zval =  5.0
     Generated using "atomic" code by A. Dal Corso  v.5.1
     Using radial grid of 1147 points,  6 beta functions with: 
                l(1) =   0
                l(2) =   0
                l(3) =   1
                l(4) =   1
                l(5) =   2
                l(6) =   2
     Q(r) pseudized with 0 coefficients 


     atomic species   valence    mass     pseudopotential
        Fe            16.00    55.84500     Fe( 1.00)
        Na             9.00    22.98977     Na( 1.00)
        O              6.00    15.99940     O ( 1.00)
        P              5.00    30.97376     P ( 1.00)

     Starting magnetic structure 
     atomic species   magnetization
        Fe           0.312
        Na           0.000
        O            0.000
        P            0.000

     No symmetry found


                                    s                        frac. trans.

      isym =  1     identity                                     

 cryst.   s( 1) = (     1          0          0      )
                  (     0          1          0      )
                  (     0          0          1      )

 cart.    s( 1) = (  1.0000000  0.0000000  0.0000000 )
                  (  0.0000000  1.0000000  0.0000000 )
                  (  0.0000000  0.0000000  1.0000000 )


   Cartesian axes

     site n.     atom                  positions (alat units)
         1           Na  tau(   1) = (   0.9999980   0.0000000   0.0000000  )
         2           Fe  tau(   2) = (   0.2867560   0.4460794   0.4554662  )
         3           Fe  tau(   3) = (   0.2233660   0.1521093   0.2279682  )
         4           Fe  tau(   4) = (   0.7132500   0.1515135   0.0045774  )
         5           Fe  tau(   5) = (   0.7766390   0.4454836   0.2320754  )
         6           P   tau(   6) = (   0.1081020   0.4457710   0.2048718  )
         7           P   tau(   7) = (   0.3915960   0.1487097   0.4347836  )
         8           P   tau(   8) = (   0.8919040   0.1518219   0.2551741  )
         9           P   tau(   9) = (   0.6084100   0.4488833   0.0252590  )
        10           O   tau(  10) = (   0.1288530   0.4505057   0.3470373  )
        11           O   tau(  11) = (   0.3681240   0.1483858   0.1161778  )
        12           O   tau(  12) = (   0.8711530   0.1470872   0.1130049  )
        13           O   tau(  13) = (   0.6318820   0.4492071   0.3438667  )
        14           O   tau(  14) = (   0.4626860   0.4491420   0.0532943  )
        15           O   tau(  15) = (   0.0379730   0.1464048   0.2865042  )
        16           O   tau(  16) = (   0.5373200   0.1484509   0.4067492  )
        17           O   tau(  17) = (   0.9620320   0.4511876   0.1735394  )
        18           O   tau(  18) = (   0.1766340   0.5619359   0.1358537  )
        19           O   tau(  19) = (   0.3194030   0.0336198   0.3689164  )
        20           O   tau(  20) = (   0.8223270   0.2689908   0.3180980  )
        21           O   tau(  21) = (   0.6786820   0.3316977   0.0903387  )
        22           O   tau(  22) = (   0.8233720   0.0356570   0.3241898  )
        23           O   tau(  23) = (   0.6806030   0.5639737   0.0911276  )
        24           O   tau(  24) = (   0.1776790   0.3286021   0.1419456  )
        25           O   tau(  25) = (   0.3213240   0.2658952   0.3697053  )

   Crystallographic axes

     site n.     atom                  positions (cryst. coord.)
         1           Na  tau(   1) = (  0.9999980  0.0000000  0.0000000  )
         2           Fe  tau(   2) = (  0.2867560  0.7464640  0.9900560  )
         3           Fe  tau(   3) = (  0.2233660  0.2545380  0.4955390  )
         4           Fe  tau(   4) = (  0.7132500  0.2535410  0.0099500  )
         5           Fe  tau(   5) = (  0.7766390  0.7454670  0.5044670  )
         6           P   tau(   6) = (  0.1081020  0.7459480  0.4453340  )
         7           P   tau(   7) = (  0.3915960  0.2488490  0.9450980  )
         8           P   tau(   8) = (  0.8919040  0.2540570  0.5546770  )
         9           P   tau(   9) = (  0.6084100  0.7511560  0.0549060  )
        10           O   tau(  10) = (  0.1288530  0.7538710  0.7543620  )
        11           O   tau(  11) = (  0.3681240  0.2483070  0.2525380  )
        12           O   tau(  12) = (  0.8711530  0.2461340  0.2456410  )
        13           O   tau(  13) = (  0.6318820  0.7516980  0.7474700  )
        14           O   tau(  14) = (  0.4626860  0.7515890  0.1158470  )
        15           O   tau(  15) = (  0.0379730  0.2449920  0.6227800  )
        16           O   tau(  16) = (  0.5373200  0.2484160  0.8841590  )
        17           O   tau(  17) = (  0.9620320  0.7550120  0.3772260  )
        18           O   tau(  18) = (  0.1766340  0.9403370  0.2953080  )
        19           O   tau(  19) = (  0.3194030  0.0562590  0.8019210  )
        20           O   tau(  20) = (  0.8223270  0.4501260  0.6914560  )
        21           O   tau(  21) = (  0.6786820  0.5550590  0.1963710  )
        22           O   tau(  22) = (  0.8233720  0.0596680  0.7046980  )
        23           O   tau(  23) = (  0.6806030  0.9437470  0.1980860  )
        24           O   tau(  24) = (  0.1776790  0.5498790  0.3085500  )
        25           O   tau(  25) = (  0.3213240  0.4449460  0.8036360  )

     number of k points=   158  Marzari-Vanderbilt smearing, width (Ry)=  0.0073
                       cart. coord. in units 2pi/alat
        k(    1) = (   0.0000000   0.0000000   0.0000000), wk =   0.0031746
        k(    2) = (   0.0000000   0.0000000   0.2415245), wk =   0.0063492
        k(    3) = (   0.0000000   0.0000000   0.4830489), wk =   0.0063492
        k(    4) = (   0.0000000   0.0000000   0.7245734), wk =   0.0063492
        k(    5) = (   0.0000000   0.0000000   0.9660979), wk =   0.0063492
        k(    6) = (   0.0000000   0.2390555   0.0000000), wk =   0.0063492
        k(    7) = (   0.0000000   0.2390555   0.2415245), wk =   0.0063492
        k(    8) = (   0.0000000   0.2390555   0.4830489), wk =   0.0063492
        k(    9) = (   0.0000000   0.2390555   0.7245734), wk =   0.0063492
        k(   10) = (   0.0000000   0.2390555   0.9660979), wk =   0.0063492
        k(   11) = (   0.0000000   0.4781110   0.0000000), wk =   0.0063492
        k(   12) = (   0.0000000   0.4781110   0.2415245), wk =   0.0063492
        k(   13) = (   0.0000000   0.4781110   0.4830489), wk =   0.0063492
        k(   14) = (   0.0000000   0.4781110   0.7245734), wk =   0.0063492
        k(   15) = (   0.0000000   0.4781110   0.9660979), wk =   0.0063492
        k(   16) = (   0.0000000   0.7171664   0.0000000), wk =   0.0063492
        k(   17) = (   0.0000000   0.7171664   0.2415245), wk =   0.0063492
        k(   18) = (   0.0000000   0.7171664   0.4830489), wk =   0.0063492
        k(   19) = (   0.0000000   0.7171664   0.7245734), wk =   0.0063492
        k(   20) = (   0.0000000   0.7171664   0.9660979), wk =   0.0063492
        k(   21) = (   0.2000000   0.0000000   0.0000000), wk =   0.0063492
        k(   22) = (   0.2000000   0.0000000   0.2415245), wk =   0.0063492
        k(   23) = (   0.2000000   0.0000000   0.4830489), wk =   0.0063492
        k(   24) = (   0.2000000   0.0000000   0.7245734), wk =   0.0063492
        k(   25) = (   0.2000000   0.0000000   0.9660979), wk =   0.0063492
        k(   26) = (   0.2000000   0.2390555   0.0000000), wk =   0.0063492
        k(   27) = (   0.2000000   0.2390555   0.2415245), wk =   0.0063492
        k(   28) = (   0.2000000   0.2390555   0.4830489), wk =   0.0063492
        k(   29) = (   0.2000000   0.2390555   0.7245734), wk =   0.0063492
        k(   30) = (   0.2000000   0.2390555   0.9660979), wk =   0.0063492
        k(   31) = (   0.2000000   0.4781110   0.0000000), wk =   0.0063492
        k(   32) = (   0.2000000   0.4781110   0.2415245), wk =   0.0063492
        k(   33) = (   0.2000000   0.4781110   0.4830489), wk =   0.0063492
        k(   34) = (   0.2000000   0.4781110   0.7245734), wk =   0.0063492
        k(   35) = (   0.2000000   0.4781110   0.9660979), wk =   0.0063492
        k(   36) = (   0.2000000   0.7171664   0.0000000), wk =   0.0063492
        k(   37) = (   0.2000000   0.7171664   0.2415245), wk =   0.0063492
        k(   38) = (   0.2000000   0.7171664   0.4830489), wk =   0.0063492
        k(   39) = (   0.2000000   0.7171664   0.7245734), wk =   0.0063492
        k(   40) = (   0.2000000   0.7171664   0.9660979), wk =   0.0063492
        k(   41) = (   0.4000000   0.0000000   0.0000000), wk =   0.0063492
        k(   42) = (   0.4000000   0.0000000   0.2415245), wk =   0.0063492
        k(   43) = (   0.4000000   0.0000000   0.4830489), wk =   0.0063492
        k(   44) = (   0.4000000   0.0000000   0.7245734), wk =   0.0063492
        k(   45) = (   0.4000000   0.0000000   0.9660979), wk =   0.0063492
        k(   46) = (   0.4000000   0.2390555   0.0000000), wk =   0.0063492
        k(   47) = (   0.4000000   0.2390555   0.2415245), wk =   0.0063492
        k(   48) = (   0.4000000   0.2390555   0.4830489), wk =   0.0063492
        k(   49) = (   0.4000000   0.2390555   0.7245734), wk =   0.0063492
        k(   50) = (   0.4000000   0.2390555   0.9660979), wk =   0.0063492
        k(   51) = (   0.4000000   0.4781110   0.0000000), wk =   0.0063492
        k(   52) = (   0.4000000   0.4781110   0.2415245), wk =   0.0063492
        k(   53) = (   0.4000000   0.4781110   0.4830489), wk =   0.0063492
        k(   54) = (   0.4000000   0.4781110   0.7245734), wk =   0.0063492
        k(   55) = (   0.4000000   0.4781110   0.9660979), wk =   0.0063492
        k(   56) = (   0.4000000   0.7171664   0.0000000), wk =   0.0063492
        k(   57) = (   0.4000000   0.7171664   0.2415245), wk =   0.0063492
        k(   58) = (   0.4000000   0.7171664   0.4830489), wk =   0.0063492
        k(   59) = (   0.4000000   0.7171664   0.7245734), wk =   0.0063492
        k(   60) = (   0.4000000   0.7171664   0.9660979), wk =   0.0063492
        k(   61) = (   0.0000000  -0.2390555   0.2415245), wk =   0.0063492
        k(   62) = (   0.0000000  -0.2390555   0.4830489), wk =   0.0063492
        k(   63) = (   0.0000000  -0.2390555   0.7245734), wk =   0.0063492
        k(   64) = (   0.0000000  -0.2390555   0.9660979), wk =   0.0063492
        k(   65) = (   0.0000000  -0.4781110   0.2415245), wk =   0.0063492
        k(   66) = (   0.0000000  -0.4781110   0.4830489), wk =   0.0063492
        k(   67) = (   0.0000000  -0.4781110   0.7245734), wk =   0.0063492
        k(   68) = (   0.0000000  -0.4781110   0.9660979), wk =   0.0063492
        k(   69) = (   0.0000000  -0.7171664   0.2415245), wk =   0.0063492
        k(   70) = (   0.0000000  -0.7171664   0.4830489), wk =   0.0063492
        k(   71) = (   0.0000000  -0.7171664   0.7245734), wk =   0.0063492
        k(   72) = (   0.0000000  -0.7171664   0.9660979), wk =   0.0063492
        k(   73) = (  -0.2000000   0.0000000   0.2415245), wk =   0.0063492
        k(   74) = (  -0.2000000   0.0000000   0.4830489), wk =   0.0063492
        k(   75) = (  -0.2000000   0.0000000   0.7245734), wk =   0.0063492
        k(   76) = (  -0.2000000   0.0000000   0.9660979), wk =   0.0063492
        k(   77) = (  -0.2000000   0.2390555   0.0000000), wk =   0.0063492
        k(   78) = (  -0.2000000  -0.2390555   0.2415245), wk =   0.0063492
        k(   79) = (  -0.2000000   0.2390555  -0.2415245), wk =   0.0063492
        k(   80) = (   0.2000000  -0.2390555  -0.2415245), wk =   0.0063492
        k(   81) = (  -0.2000000  -0.2390555   0.4830489), wk =   0.0063492
        k(   82) = (  -0.2000000   0.2390555  -0.4830489), wk =   0.0063492
        k(   83) = (   0.2000000  -0.2390555  -0.4830489), wk =   0.0063492
        k(   84) = (  -0.2000000  -0.2390555   0.7245734), wk =   0.0063492
        k(   85) = (  -0.2000000   0.2390555  -0.7245734), wk =   0.0063492
        k(   86) = (   0.2000000  -0.2390555  -0.7245734), wk =   0.0063492
        k(   87) = (  -0.2000000  -0.2390555   0.9660979), wk =   0.0063492
        k(   88) = (  -0.2000000   0.2390555  -0.9660979), wk =   0.0063492
        k(   89) = (   0.2000000  -0.2390555  -0.9660979), wk =   0.0063492
        k(   90) = (  -0.2000000   0.4781110   0.0000000), wk =   0.0063492
        k(   91) = (  -0.2000000  -0.4781110   0.2415245), wk =   0.0063492
        k(   92) = (  -0.2000000   0.4781110  -0.2415245), wk =   0.0063492
        k(   93) = (   0.2000000  -0.4781110  -0.2415245), wk =   0.0063492
        k(   94) = (  -0.2000000  -0.4781110   0.4830489), wk =   0.0063492
        k(   95) = (  -0.2000000   0.4781110  -0.4830489), wk =   0.0063492
        k(   96) = (   0.2000000  -0.4781110  -0.4830489), wk =   0.0063492
        k(   97) = (  -0.2000000  -0.4781110   0.7245734), wk =   0.0063492
        k(   98) = (  -0.2000000   0.4781110  -0.7245734), wk =   0.0063492
        k(   99) = (   0.2000000  -0.4781110  -0.7245734), wk =   0.0063492
        k(  100) = (  -0.2000000  -0.4781110   0.9660979), wk =   0.0063492
        k(  101) = (  -0.2000000   0.4781110  -0.9660979), wk =   0.0063492
        k(  102) = (   0.2000000  -0.4781110  -0.9660979), wk =   0.0063492
        k(  103) = (  -0.2000000   0.7171664   0.0000000), wk =   0.0063492
        k(  104) = (  -0.2000000  -0.7171664   0.2415245), wk =   0.0063492
        k(  105) = (  -0.2000000   0.7171664  -0.2415245), wk =   0.0063492
        k(  106) = (   0.2000000  -0.7171664  -0.2415245), wk =   0.0063492
        k(  107) = (  -0.2000000  -0.7171664   0.4830489), wk =   0.0063492
        k(  108) = (  -0.2000000   0.7171664  -0.4830489), wk =   0.0063492
        k(  109) = (   0.2000000  -0.7171664  -0.4830489), wk =   0.0063492
        k(  110) = (  -0.2000000  -0.7171664   0.7245734), wk =   0.0063492
        k(  111) = (  -0.2000000   0.7171664  -0.7245734), wk =   0.0063492
        k(  112) = (   0.2000000  -0.7171664  -0.7245734), wk =   0.0063492
        k(  113) = (  -0.2000000  -0.7171664   0.9660979), wk =   0.0063492
        k(  114) = (  -0.2000000   0.7171664  -0.9660979), wk =   0.0063492
        k(  115) = (   0.2000000  -0.7171664  -0.9660979), wk =   0.0063492
        k(  116) = (  -0.4000000   0.0000000   0.2415245), wk =   0.0063492
        k(  117) = (  -0.4000000   0.0000000   0.4830489), wk =   0.0063492
        k(  118) = (  -0.4000000   0.0000000   0.7245734), wk =   0.0063492
        k(  119) = (  -0.4000000   0.0000000   0.9660979), wk =   0.0063492
        k(  120) = (  -0.4000000   0.2390555   0.0000000), wk =   0.0063492
        k(  121) = (  -0.4000000  -0.2390555   0.2415245), wk =   0.0063492
        k(  122) = (  -0.4000000   0.2390555  -0.2415245), wk =   0.0063492
        k(  123) = (   0.4000000  -0.2390555  -0.2415245), wk =   0.0063492
        k(  124) = (  -0.4000000  -0.2390555   0.4830489), wk =   0.0063492
        k(  125) = (  -0.4000000   0.2390555  -0.4830489), wk =   0.0063492
        k(  126) = (   0.4000000  -0.2390555  -0.4830489), wk =   0.0063492
        k(  127) = (  -0.4000000  -0.2390555   0.7245734), wk =   0.0063492
        k(  128) = (  -0.4000000   0.2390555  -0.7245734), wk =   0.0063492
        k(  129) = (   0.4000000  -0.2390555  -0.7245734), wk =   0.0063492
        k(  130) = (  -0.4000000  -0.2390555   0.9660979), wk =   0.0063492
        k(  131) = (  -0.4000000   0.2390555  -0.9660979), wk =   0.0063492
        k(  132) = (   0.4000000  -0.2390555  -0.9660979), wk =   0.0063492
        k(  133) = (  -0.4000000   0.4781110   0.0000000), wk =   0.0063492
        k(  134) = (  -0.4000000  -0.4781110   0.2415245), wk =   0.0063492
        k(  135) = (  -0.4000000   0.4781110  -0.2415245), wk =   0.0063492
        k(  136) = (   0.4000000  -0.4781110  -0.2415245), wk =   0.0063492
        k(  137) = (  -0.4000000  -0.4781110   0.4830489), wk =   0.0063492
        k(  138) = (  -0.4000000   0.4781110  -0.4830489), wk =   0.0063492
        k(  139) = (   0.4000000  -0.4781110  -0.4830489), wk =   0.0063492
        k(  140) = (  -0.4000000  -0.4781110   0.7245734), wk =   0.0063492
        k(  141) = (  -0.4000000   0.4781110  -0.7245734), wk =   0.0063492
        k(  142) = (   0.4000000  -0.4781110  -0.7245734), wk =   0.0063492
        k(  143) = (  -0.4000000  -0.4781110   0.9660979), wk =   0.0063492
        k(  144) = (  -0.4000000   0.4781110  -0.9660979), wk =   0.0063492
        k(  145) = (   0.4000000  -0.4781110  -0.9660979), wk =   0.0063492
        k(  146) = (  -0.4000000   0.7171664   0.0000000), wk =   0.0063492
        k(  147) = (  -0.4000000  -0.7171664   0.2415245), wk =   0.0063492
        k(  148) = (  -0.4000000   0.7171664  -0.2415245), wk =   0.0063492
        k(  149) = (   0.4000000  -0.7171664  -0.2415245), wk =   0.0063492
        k(  150) = (  -0.4000000  -0.7171664   0.4830489), wk =   0.0063492
        k(  151) = (  -0.4000000   0.7171664  -0.4830489), wk =   0.0063492
        k(  152) = (   0.4000000  -0.7171664  -0.4830489), wk =   0.0063492
        k(  153) = (  -0.4000000  -0.7171664   0.7245734), wk =   0.0063492
        k(  154) = (  -0.4000000   0.7171664  -0.7245734), wk =   0.0063492
        k(  155) = (   0.4000000  -0.7171664  -0.7245734), wk =   0.0063492
        k(  156) = (  -0.4000000  -0.7171664   0.9660979), wk =   0.0063492
        k(  157) = (  -0.4000000   0.7171664  -0.9660979), wk =   0.0063492
        k(  158) = (   0.4000000  -0.7171664  -0.9660979), wk =   0.0063492

                       cryst. coord.
        k(    1) = (   0.0000000   0.0000000   0.0000000), wk =   0.0031746
        k(    2) = (   0.0000000   0.0000000   0.1111111), wk =   0.0063492
        k(    3) = (   0.0000000   0.0000000   0.2222222), wk =   0.0063492
        k(    4) = (   0.0000000   0.0000000   0.3333333), wk =   0.0063492
        k(    5) = (   0.0000000   0.0000000   0.4444444), wk =   0.0063492
        k(    6) = (   0.0000000   0.1428571   0.0000000), wk =   0.0063492
        k(    7) = (   0.0000000   0.1428571   0.1111111), wk =   0.0063492
        k(    8) = (   0.0000000   0.1428571   0.2222222), wk =   0.0063492
        k(    9) = (   0.0000000   0.1428571   0.3333333), wk =   0.0063492
        k(   10) = (   0.0000000   0.1428571   0.4444444), wk =   0.0063492
        k(   11) = (   0.0000000   0.2857143   0.0000000), wk =   0.0063492
        k(   12) = (   0.0000000   0.2857143   0.1111111), wk =   0.0063492
        k(   13) = (   0.0000000   0.2857143   0.2222222), wk =   0.0063492
        k(   14) = (   0.0000000   0.2857143   0.3333333), wk =   0.0063492
        k(   15) = (   0.0000000   0.2857143   0.4444444), wk =   0.0063492
        k(   16) = (   0.0000000   0.4285714   0.0000000), wk =   0.0063492
        k(   17) = (   0.0000000   0.4285714   0.1111111), wk =   0.0063492
        k(   18) = (   0.0000000   0.4285714   0.2222222), wk =   0.0063492
        k(   19) = (   0.0000000   0.4285714   0.3333333), wk =   0.0063492
        k(   20) = (   0.0000000   0.4285714   0.4444444), wk =   0.0063492
        k(   21) = (   0.2000000   0.0000000   0.0000000), wk =   0.0063492
        k(   22) = (   0.2000000   0.0000000   0.1111111), wk =   0.0063492
        k(   23) = (   0.2000000   0.0000000   0.2222222), wk =   0.0063492
        k(   24) = (   0.2000000   0.0000000   0.3333333), wk =   0.0063492
        k(   25) = (   0.2000000   0.0000000   0.4444444), wk =   0.0063492
        k(   26) = (   0.2000000   0.1428571   0.0000000), wk =   0.0063492
        k(   27) = (   0.2000000   0.1428571   0.1111111), wk =   0.0063492
        k(   28) = (   0.2000000   0.1428571   0.2222222), wk =   0.0063492
        k(   29) = (   0.2000000   0.1428571   0.3333333), wk =   0.0063492
        k(   30) = (   0.2000000   0.1428571   0.4444444), wk =   0.0063492
        k(   31) = (   0.2000000   0.2857143   0.0000000), wk =   0.0063492
        k(   32) = (   0.2000000   0.2857143   0.1111111), wk =   0.0063492
        k(   33) = (   0.2000000   0.2857143   0.2222222), wk =   0.0063492
        k(   34) = (   0.2000000   0.2857143   0.3333333), wk =   0.0063492
        k(   35) = (   0.2000000   0.2857143   0.4444444), wk =   0.0063492
        k(   36) = (   0.2000000   0.4285714   0.0000000), wk =   0.0063492
        k(   37) = (   0.2000000   0.4285714   0.1111111), wk =   0.0063492
        k(   38) = (   0.2000000   0.4285714   0.2222222), wk =   0.0063492
        k(   39) = (   0.2000000   0.4285714   0.3333333), wk =   0.0063492
        k(   40) = (   0.2000000   0.4285714   0.4444444), wk =   0.0063492
        k(   41) = (   0.4000000   0.0000000   0.0000000), wk =   0.0063492
        k(   42) = (   0.4000000   0.0000000   0.1111111), wk =   0.0063492
        k(   43) = (   0.4000000   0.0000000   0.2222222), wk =   0.0063492
        k(   44) = (   0.4000000   0.0000000   0.3333333), wk =   0.0063492
        k(   45) = (   0.4000000   0.0000000   0.4444444), wk =   0.0063492
        k(   46) = (   0.4000000   0.1428571   0.0000000), wk =   0.0063492
        k(   47) = (   0.4000000   0.1428571   0.1111111), wk =   0.0063492
        k(   48) = (   0.4000000   0.1428571   0.2222222), wk =   0.0063492
        k(   49) = (   0.4000000   0.1428571   0.3333333), wk =   0.0063492
        k(   50) = (   0.4000000   0.1428571   0.4444444), wk =   0.0063492
        k(   51) = (   0.4000000   0.2857143   0.0000000), wk =   0.0063492
        k(   52) = (   0.4000000   0.2857143   0.1111111), wk =   0.0063492
        k(   53) = (   0.4000000   0.2857143   0.2222222), wk =   0.0063492
        k(   54) = (   0.4000000   0.2857143   0.3333333), wk =   0.0063492
        k(   55) = (   0.4000000   0.2857143   0.4444444), wk =   0.0063492
        k(   56) = (   0.4000000   0.4285714   0.0000000), wk =   0.0063492
        k(   57) = (   0.4000000   0.4285714   0.1111111), wk =   0.0063492
        k(   58) = (   0.4000000   0.4285714   0.2222222), wk =   0.0063492
        k(   59) = (   0.4000000   0.4285714   0.3333333), wk =   0.0063492
        k(   60) = (   0.4000000   0.4285714   0.4444444), wk =   0.0063492
        k(   61) = (   0.0000000  -0.1428571   0.1111111), wk =   0.0063492
        k(   62) = (   0.0000000  -0.1428571   0.2222222), wk =   0.0063492
        k(   63) = (   0.0000000  -0.1428571   0.3333333), wk =   0.0063492
        k(   64) = (   0.0000000  -0.1428571   0.4444444), wk =   0.0063492
        k(   65) = (   0.0000000  -0.2857143   0.1111111), wk =   0.0063492
        k(   66) = (   0.0000000  -0.2857143   0.2222222), wk =   0.0063492
        k(   67) = (   0.0000000  -0.2857143   0.3333333), wk =   0.0063492
        k(   68) = (   0.0000000  -0.2857143   0.4444444), wk =   0.0063492
        k(   69) = (   0.0000000  -0.4285714   0.1111111), wk =   0.0063492
        k(   70) = (   0.0000000  -0.4285714   0.2222222), wk =   0.0063492
        k(   71) = (   0.0000000  -0.4285714   0.3333333), wk =   0.0063492
        k(   72) = (   0.0000000  -0.4285714   0.4444444), wk =   0.0063492
        k(   73) = (  -0.2000000   0.0000000   0.1111111), wk =   0.0063492
        k(   74) = (  -0.2000000   0.0000000   0.2222222), wk =   0.0063492
        k(   75) = (  -0.2000000   0.0000000   0.3333333), wk =   0.0063492
        k(   76) = (  -0.2000000   0.0000000   0.4444444), wk =   0.0063492
        k(   77) = (  -0.2000000   0.1428571   0.0000000), wk =   0.0063492
        k(   78) = (  -0.2000000  -0.1428571   0.1111111), wk =   0.0063492
        k(   79) = (  -0.2000000   0.1428571  -0.1111111), wk =   0.0063492
        k(   80) = (   0.2000000  -0.1428571  -0.1111111), wk =   0.0063492
        k(   81) = (  -0.2000000  -0.1428571   0.2222222), wk =   0.0063492
        k(   82) = (  -0.2000000   0.1428571  -0.2222222), wk =   0.0063492
        k(   83) = (   0.2000000  -0.1428571  -0.2222222), wk =   0.0063492
        k(   84) = (  -0.2000000  -0.1428571   0.3333333), wk =   0.0063492
        k(   85) = (  -0.2000000   0.1428571  -0.3333333), wk =   0.0063492
        k(   86) = (   0.2000000  -0.1428571  -0.3333333), wk =   0.0063492
        k(   87) = (  -0.2000000  -0.1428571   0.4444444), wk =   0.0063492
        k(   88) = (  -0.2000000   0.1428571  -0.4444444), wk =   0.0063492
        k(   89) = (   0.2000000  -0.1428571  -0.4444444), wk =   0.0063492
        k(   90) = (  -0.2000000   0.2857143   0.0000000), wk =   0.0063492
        k(   91) = (  -0.2000000  -0.2857143   0.1111111), wk =   0.0063492
        k(   92) = (  -0.2000000   0.2857143  -0.1111111), wk =   0.0063492
        k(   93) = (   0.2000000  -0.2857143  -0.1111111), wk =   0.0063492
        k(   94) = (  -0.2000000  -0.2857143   0.2222222), wk =   0.0063492
        k(   95) = (  -0.2000000   0.2857143  -0.2222222), wk =   0.0063492
        k(   96) = (   0.2000000  -0.2857143  -0.2222222), wk =   0.0063492
        k(   97) = (  -0.2000000  -0.2857143   0.3333333), wk =   0.0063492
        k(   98) = (  -0.2000000   0.2857143  -0.3333333), wk =   0.0063492
        k(   99) = (   0.2000000  -0.2857143  -0.3333333), wk =   0.0063492
        k(  100) = (  -0.2000000  -0.2857143   0.4444444), wk =   0.0063492
        k(  101) = (  -0.2000000   0.2857143  -0.4444444), wk =   0.0063492
        k(  102) = (   0.2000000  -0.2857143  -0.4444444), wk =   0.0063492
        k(  103) = (  -0.2000000   0.4285714   0.0000000), wk =   0.0063492
        k(  104) = (  -0.2000000  -0.4285714   0.1111111), wk =   0.0063492
        k(  105) = (  -0.2000000   0.4285714  -0.1111111), wk =   0.0063492
        k(  106) = (   0.2000000  -0.4285714  -0.1111111), wk =   0.0063492
        k(  107) = (  -0.2000000  -0.4285714   0.2222222), wk =   0.0063492
        k(  108) = (  -0.2000000   0.4285714  -0.2222222), wk =   0.0063492
        k(  109) = (   0.2000000  -0.4285714  -0.2222222), wk =   0.0063492
        k(  110) = (  -0.2000000  -0.4285714   0.3333333), wk =   0.0063492
        k(  111) = (  -0.2000000   0.4285714  -0.3333333), wk =   0.0063492
        k(  112) = (   0.2000000  -0.4285714  -0.3333333), wk =   0.0063492
        k(  113) = (  -0.2000000  -0.4285714   0.4444444), wk =   0.0063492
        k(  114) = (  -0.2000000   0.4285714  -0.4444444), wk =   0.0063492
        k(  115) = (   0.2000000  -0.4285714  -0.4444444), wk =   0.0063492
        k(  116) = (  -0.4000000   0.0000000   0.1111111), wk =   0.0063492
        k(  117) = (  -0.4000000   0.0000000   0.2222222), wk =   0.0063492
        k(  118) = (  -0.4000000   0.0000000   0.3333333), wk =   0.0063492
        k(  119) = (  -0.4000000   0.0000000   0.4444444), wk =   0.0063492
        k(  120) = (  -0.4000000   0.1428571   0.0000000), wk =   0.0063492
        k(  121) = (  -0.4000000  -0.1428571   0.1111111), wk =   0.0063492
        k(  122) = (  -0.4000000   0.1428571  -0.1111111), wk =   0.0063492
        k(  123) = (   0.4000000  -0.1428571  -0.1111111), wk =   0.0063492
        k(  124) = (  -0.4000000  -0.1428571   0.2222222), wk =   0.0063492
        k(  125) = (  -0.4000000   0.1428571  -0.2222222), wk =   0.0063492
        k(  126) = (   0.4000000  -0.1428571  -0.2222222), wk =   0.0063492
        k(  127) = (  -0.4000000  -0.1428571   0.3333333), wk =   0.0063492
        k(  128) = (  -0.4000000   0.1428571  -0.3333333), wk =   0.0063492
        k(  129) = (   0.4000000  -0.1428571  -0.3333333), wk =   0.0063492
        k(  130) = (  -0.4000000  -0.1428571   0.4444444), wk =   0.0063492
        k(  131) = (  -0.4000000   0.1428571  -0.4444444), wk =   0.0063492
        k(  132) = (   0.4000000  -0.1428571  -0.4444444), wk =   0.0063492
        k(  133) = (  -0.4000000   0.2857143   0.0000000), wk =   0.0063492
        k(  134) = (  -0.4000000  -0.2857143   0.1111111), wk =   0.0063492
        k(  135) = (  -0.4000000   0.2857143  -0.1111111), wk =   0.0063492
        k(  136) = (   0.4000000  -0.2857143  -0.1111111), wk =   0.0063492
        k(  137) = (  -0.4000000  -0.2857143   0.2222222), wk =   0.0063492
        k(  138) = (  -0.4000000   0.2857143  -0.2222222), wk =   0.0063492
        k(  139) = (   0.4000000  -0.2857143  -0.2222222), wk =   0.0063492
        k(  140) = (  -0.4000000  -0.2857143   0.3333333), wk =   0.0063492
        k(  141) = (  -0.4000000   0.2857143  -0.3333333), wk =   0.0063492
        k(  142) = (   0.4000000  -0.2857143  -0.3333333), wk =   0.0063492
        k(  143) = (  -0.4000000  -0.2857143   0.4444444), wk =   0.0063492
        k(  144) = (  -0.4000000   0.2857143  -0.4444444), wk =   0.0063492
        k(  145) = (   0.4000000  -0.2857143  -0.4444444), wk =   0.0063492
        k(  146) = (  -0.4000000   0.4285714   0.0000000), wk =   0.0063492
        k(  147) = (  -0.4000000  -0.4285714   0.1111111), wk =   0.0063492
        k(  148) = (  -0.4000000   0.4285714  -0.1111111), wk =   0.0063492
        k(  149) = (   0.4000000  -0.4285714  -0.1111111), wk =   0.0063492
        k(  150) = (  -0.4000000  -0.4285714   0.2222222), wk =   0.0063492
        k(  151) = (  -0.4000000   0.4285714  -0.2222222), wk =   0.0063492
        k(  152) = (   0.4000000  -0.4285714  -0.2222222), wk =   0.0063492
        k(  153) = (  -0.4000000  -0.4285714   0.3333333), wk =   0.0063492
        k(  154) = (  -0.4000000   0.4285714  -0.3333333), wk =   0.0063492
        k(  155) = (   0.4000000  -0.4285714  -0.3333333), wk =   0.0063492
        k(  156) = (  -0.4000000  -0.4285714   0.4444444), wk =   0.0063492
        k(  157) = (  -0.4000000   0.4285714  -0.4444444), wk =   0.0063492
        k(  158) = (   0.4000000  -0.4285714  -0.4444444), wk =   0.0063492

     Dense  grid:  1382463 G-vectors     FFT dimensions: ( 216, 128, 100)

     Smooth grid:   311535 G-vectors     FFT dimensions: ( 135,  80,  60)

     Dynamical RAM for                 wfc:       2.12 MB

     Dynamical RAM for     wfc (w. buffer):     671.08 MB

     Dynamical RAM for           str. fact:       2.64 MB

     Dynamical RAM for           local pot:       0.00 MB

     Dynamical RAM for          nlocal pot:       5.20 MB

     Dynamical RAM for                qrad:      10.54 MB

     Dynamical RAM for          rho,v,vnew:       9.02 MB

     Dynamical RAM for               rhoin:       3.01 MB

     Dynamical RAM for            rho*nmix:      21.09 MB

     Dynamical RAM for           G-vectors:       2.55 MB

     Dynamical RAM for          h,s,v(r/c):       2.38 MB

     Dynamical RAM for          <psi|beta>:       0.49 MB

     Dynamical RAM for                 psi:       4.23 MB

     Dynamical RAM for                hpsi:       4.23 MB

     Dynamical RAM for                spsi:       4.23 MB

     Dynamical RAM for      wfcinit/wfcrot:       5.52 MB

     Dynamical RAM for           addusdens:     133.82 MB

     Dynamical RAM for          addusforce:     153.72 MB

     Dynamical RAM for         addusstress:     133.49 MB

     Estimated static dynamical RAM per process >     733.48 MB

     Estimated max dynamical RAM per process >     887.20 MB

     Estimated total dynamical RAM >      27.73 GB

     Check: negative core charge=   -0.000003
     Generating pointlists ...
     new r_m :   0.0755 (alat units)  1.5334 (a.u.) for type    1
     new r_m :   0.0931 (alat units)  1.8916 (a.u.) for type    2
     new r_m :   0.0591 (alat units)  1.2017 (a.u.) for type    3
     new r_m :   0.0591 (alat units)  1.2017 (a.u.) for type    4

     Initial potential from superposition of free atoms

     starting charge  188.99132, renormalised to  189.00000
     Starting wfcs are  137 randomized atomic wfcs
     Checking if some PAW data can be deallocated... 
       PAW data deallocated on   24 nodes for type:  1
       PAW data deallocated on   16 nodes for type:  3

     total cpu time spent up to now is     1346.3 secs

     Self-consistent Calculation

     iteration #  1     ecut=   100.00 Ry     beta= 0.40
     Davidson diagonalization with overlap
     ethr =  1.00E-02,  avg # of iterations =  2.9

     negative rho (up, down):  0.000E+00 7.161E-05

     total cpu time spent up to now is     4911.0 secs

     total energy              =   -2123.88001703 Ry
     estimated scf accuracy    <       6.87298404 Ry

     total magnetization       =    19.00 Bohr mag/cell
     absolute magnetization    =    19.00 Bohr mag/cell

     iteration #  2     ecut=   100.00 Ry     beta= 0.40
     Davidson diagonalization with overlap
     ethr =  3.64E-03,  avg # of iterations =  2.0

     negative rho (up, down):  0.000E+00 7.952E-06

     total cpu time spent up to now is     8358.6 secs

     total energy              =   -2121.93147776 Ry
     estimated scf accuracy    <      24.04330253 Ry

     total magnetization       =     8.76 Bohr mag/cell
     absolute magnetization    =     9.11 Bohr mag/cell

     iteration #  3     ecut=   100.00 Ry     beta= 0.40
     Davidson diagonalization with overlap
     ethr =  3.64E-03,  avg # of iterations =  2.0

     negative rho (up, down):  0.000E+00 1.273E-04

     total cpu time spent up to now is    11281.5 secs

     total energy              =   -2126.01303666 Ry
     estimated scf accuracy    <       2.52012101 Ry

     total magnetization       =    19.00 Bohr mag/cell
     absolute magnetization    =    19.00 Bohr mag/cell

     iteration #  4     ecut=   100.00 Ry     beta= 0.40
     Davidson diagonalization with overlap
     ethr =  1.33E-03,  avg # of iterations =  2.0

     negative rho (up, down):  0.000E+00 1.400E-04

     total cpu time spent up to now is    14117.3 secs

     total energy              =   -2125.62755159 Ry
     estimated scf accuracy    <      14.78751021 Ry

     total magnetization       =    13.76 Bohr mag/cell
     absolute magnetization    =    13.98 Bohr mag/cell

     iteration #  5     ecut=   100.00 Ry     beta= 0.40
     Davidson diagonalization with overlap
     ethr =  1.33E-03,  avg # of iterations =  1.0

     negative rho (up, down):  0.000E+00 1.775E-04

     total cpu time spent up to now is    16812.3 secs

     total energy              =   -2126.08427415 Ry
     estimated scf accuracy    <       1.58988884 Ry

     total magnetization       =    19.00 Bohr mag/cell
     absolute magnetization    =    19.00 Bohr mag/cell

     iteration #  6     ecut=   100.00 Ry     beta= 0.40
     Davidson diagonalization with overlap
     ethr =  8.41E-04,  avg # of iterations =  1.1

     negative rho (up, down):  0.000E+00 2.277E-04

     total cpu time spent up to now is    19518.1 secs

     total energy              =   -2126.08295906 Ry
     estimated scf accuracy    <       1.27566802 Ry

     total magnetization       =    19.00 Bohr mag/cell
     absolute magnetization    =    19.00 Bohr mag/cell

     iteration #  7     ecut=   100.00 Ry     beta= 0.40
     Davidson diagonalization with overlap
     ethr =  6.75E-04,  avg # of iterations =  1.0

     negative rho (up, down):  0.000E+00 4.873E-04

     total cpu time spent up to now is    22222.1 secs

     total energy              =   -2126.03524265 Ry
     estimated scf accuracy    <       1.11633459 Ry

     total magnetization       =    19.00 Bohr mag/cell
     absolute magnetization    =    19.00 Bohr mag/cell

     iteration #  8     ecut=   100.00 Ry     beta= 0.40
     Davidson diagonalization with overlap
     ethr =  5.91E-04,  avg # of iterations =  1.0

     negative rho (up, down):  0.000E+00 7.187E-04

     total cpu time spent up to now is    24928.8 secs

     total energy              =   -2126.01503969 Ry
     estimated scf accuracy    <       0.57866888 Ry

     total magnetization       =    19.00 Bohr mag/cell
     absolute magnetization    =    19.01 Bohr mag/cell

     iteration #  9     ecut=   100.00 Ry     beta= 0.40
     Davidson diagonalization with overlap
     ethr =  3.06E-04,  avg # of iterations =  2.1

     negative rho (up, down):  0.000E+00 7.931E-04

     total cpu time spent up to now is    27754.4 secs

     total energy              =   -2126.04621121 Ry
     estimated scf accuracy    <       0.29995435 Ry

     total magnetization       =    19.00 Bohr mag/cell
     absolute magnetization    =    19.01 Bohr mag/cell

     iteration # 10     ecut=   100.00 Ry     beta= 0.40
     Davidson diagonalization with overlap
     c_bands:  1 eigenvalues not converged
     c_bands:  1 eigenvalues not converged
     c_bands:  1 eigenvalues not converged
     ethr =  1.59E-04,  avg # of iterations =  4.7

     negative rho (up, down):  0.000E+00 8.404E-04

     total cpu time spent up to now is    30815.2 secs

     total energy              =   -2126.05161498 Ry
     estimated scf accuracy    <       0.26402417 Ry

     total magnetization       =    19.00 Bohr mag/cell
     absolute magnetization    =    19.02 Bohr mag/cell

     iteration # 11     ecut=   100.00 Ry     beta= 0.40
     Davidson diagonalization with overlap
     ethr =  1.40E-04,  avg # of iterations =  1.4

     negative rho (up, down):  0.000E+00 8.442E-04

     total cpu time spent up to now is    33559.3 secs

     total energy              =   -2126.05579992 Ry
     estimated scf accuracy    <       0.10491195 Ry

     total magnetization       =    19.00 Bohr mag/cell
     absolute magnetization    =    19.02 Bohr mag/cell

     iteration # 12     ecut=   100.00 Ry     beta= 0.40
     Davidson diagonalization with overlap
     c_bands:  1 eigenvalues not converged
     c_bands:  1 eigenvalues not converged
     c_bands:  1 eigenvalues not converged
     c_bands:  1 eigenvalues not converged
     c_bands:  1 eigenvalues not converged
     c_bands:  1 eigenvalues not converged
     c_bands:  1 eigenvalues not converged
     c_bands:  1 eigenvalues not converged
     c_bands:  1 eigenvalues not converged
     c_bands:  1 eigenvalues not converged
     c_bands:  1 eigenvalues not converged
     c_bands:  1 eigenvalues not converged
     c_bands:  1 eigenvalues not converged
     c_bands:  3 eigenvalues not converged
     c_bands:  3 eigenvalues not converged
     c_bands:  1 eigenvalues not converged
     c_bands:  1 eigenvalues not converged
     c_bands:  2 eigenvalues not converged
     c_bands:  1 eigenvalues not converged
     c_bands:  1 eigenvalues not converged
     c_bands:  1 eigenvalues not converged
     c_bands:  1 eigenvalues not converged
     c_bands:  1 eigenvalues not converged
     c_bands:  1 eigenvalues not converged
     ethr =  5.55E-05,  avg # of iterations =  9.9

     negative rho (up, down):  0.000E+00 9.487E-04

     total cpu time spent up to now is    37153.2 secs

     total energy              =   -2126.05888553 Ry
     estimated scf accuracy    <       0.00991147 Ry

     total magnetization       =    19.00 Bohr mag/cell
     absolute magnetization    =    19.03 Bohr mag/cell

     iteration # 13     ecut=   100.00 Ry     beta= 0.40
     Davidson diagonalization with overlap
     c_bands:  1 eigenvalues not converged
     c_bands:  1 eigenvalues not converged
     c_bands:  1 eigenvalues not converged
     c_bands:  1 eigenvalues not converged
     c_bands:  2 eigenvalues not converged
     c_bands:  1 eigenvalues not converged
     c_bands:  1 eigenvalues not converged
     c_bands:  1 eigenvalues not converged
     c_bands:  1 eigenvalues not converged
     c_bands:  1 eigenvalues not converged
     c_bands:  1 eigenvalues not converged
     c_bands:  1 eigenvalues not converged
     c_bands:  1 eigenvalues not converged
     c_bands:  1 eigenvalues not converged
     c_bands:  1 eigenvalues not converged
     c_bands:  1 eigenvalues not converged
     c_bands:  2 eigenvalues not converged
     c_bands:  1 eigenvalues not converged
     c_bands:  1 eigenvalues not converged
     c_bands:  1 eigenvalues not converged
     c_bands:  1 eigenvalues not converged
     c_bands:  1 eigenvalues not converged
     c_bands:  1 eigenvalues not converged
     c_bands:  1 eigenvalues not converged
     c_bands:  1 eigenvalues not converged
     c_bands:  1 eigenvalues not converged
     c_bands:  1 eigenvalues not converged
     c_bands:  1 eigenvalues not converged
     c_bands:  1 eigenvalues not converged
     c_bands:  1 eigenvalues not converged
     ethr =  5.24E-06,  avg # of iterations = 14.5

     negative rho (up, down):  0.000E+00 9.583E-04

     total cpu time spent up to now is    41724.6 secs

     total energy              =   -2126.06045558 Ry
     estimated scf accuracy    <       0.03227691 Ry

     total magnetization       =    19.00 Bohr mag/cell
     absolute magnetization    =    19.04 Bohr mag/cell

     iteration # 14     ecut=   100.00 Ry     beta= 0.40
     Davidson diagonalization with overlap
     ethr =  5.24E-06,  avg # of iterations =  1.1

     negative rho (up, down):  0.000E+00 9.580E-04

     total cpu time spent up to now is    44442.3 secs

     total energy              =   -2126.06100583 Ry
     estimated scf accuracy    <       0.01136109 Ry

     total magnetization       =    19.00 Bohr mag/cell
     absolute magnetization    =    19.05 Bohr mag/cell

     iteration # 15     ecut=   100.00 Ry     beta= 0.40
     Davidson diagonalization with overlap
     ethr =  5.24E-06,  avg # of iterations =  1.0

     negative rho (up, down):  0.000E+00 9.591E-04

     total cpu time spent up to now is    47148.1 secs

     total energy              =   -2126.06100048 Ry
     estimated scf accuracy    <       0.00717970 Ry

     total magnetization       =    19.00 Bohr mag/cell
     absolute magnetization    =    19.05 Bohr mag/cell

     iteration # 16     ecut=   100.00 Ry     beta= 0.40
     Davidson diagonalization with overlap
     ethr =  3.80E-06,  avg # of iterations =  1.0

     negative rho (up, down):  0.000E+00 9.550E-04

     total cpu time spent up to now is    49849.6 secs

     total energy              =   -2126.06107284 Ry
     estimated scf accuracy    <       0.00180961 Ry

     total magnetization       =    19.00 Bohr mag/cell
     absolute magnetization    =    19.05 Bohr mag/cell

     iteration # 17     ecut=   100.00 Ry     beta= 0.40
     Davidson diagonalization with overlap
     ethr =  9.57E-07,  avg # of iterations =  1.3

     negative rho (up, down):  0.000E+00 9.552E-04

     total cpu time spent up to now is    52582.7 secs

     total energy              =   -2126.06115421 Ry
     estimated scf accuracy    <       0.00032591 Ry

     total magnetization       =    19.00 Bohr mag/cell
     absolute magnetization    =    19.05 Bohr mag/cell

     iteration # 18     ecut=   100.00 Ry     beta= 0.40
     Davidson diagonalization with overlap
     ethr =  1.72E-07,  avg # of iterations =  4.9

     negative rho (up, down):  0.000E+00 9.486E-04

     total cpu time spent up to now is    56301.9 secs

     total energy              =   -2126.06124869 Ry
     estimated scf accuracy    <       0.00016540 Ry

     total magnetization       =    19.00 Bohr mag/cell
     absolute magnetization    =    19.05 Bohr mag/cell

     iteration # 19     ecut=   100.00 Ry     beta= 0.40
     Davidson diagonalization with overlap
     ethr =  8.75E-08,  avg # of iterations =  1.6

     negative rho (up, down):  0.000E+00 9.454E-04

     total cpu time spent up to now is    59080.5 secs

     total energy              =   -2126.06126920 Ry
     estimated scf accuracy    <       0.00002139 Ry

     total magnetization       =    19.00 Bohr mag/cell
     absolute magnetization    =    19.05 Bohr mag/cell

     iteration # 20     ecut=   100.00 Ry     beta= 0.40
     Davidson diagonalization with overlap
     ethr =  1.13E-08,  avg # of iterations =  2.8

     negative rho (up, down):  0.000E+00 9.442E-04

     total cpu time spent up to now is    62373.6 secs

     total energy              =   -2126.06127458 Ry
     estimated scf accuracy    <       0.00005276 Ry

     total magnetization       =    19.00 Bohr mag/cell
     absolute magnetization    =    19.05 Bohr mag/cell

     iteration # 21     ecut=   100.00 Ry     beta= 0.40
     Davidson diagonalization with overlap
     ethr =  1.13E-08,  avg # of iterations =  1.2

     negative rho (up, down):  0.000E+00 9.430E-04

     total cpu time spent up to now is    65089.7 secs

     total energy              =   -2126.06127871 Ry
     estimated scf accuracy    <       0.00000570 Ry

     total magnetization       =    19.00 Bohr mag/cell
     absolute magnetization    =    19.05 Bohr mag/cell

     iteration # 22     ecut=   100.00 Ry     beta= 0.40
     Davidson diagonalization with overlap
     ethr =  3.02E-09,  avg # of iterations =  2.2

     negative rho (up, down):  0.000E+00 9.435E-04

     total cpu time spent up to now is    68006.7 secs

     total energy              =   -2126.06128064 Ry
     estimated scf accuracy    <       0.00000169 Ry

     total magnetization       =    19.00 Bohr mag/cell
     absolute magnetization    =    19.05 Bohr mag/cell

     iteration # 23     ecut=   100.00 Ry     beta= 0.40
     Davidson diagonalization with overlap
     ethr =  8.94E-10,  avg # of iterations =  2.4

     negative rho (up, down):  0.000E+00 9.441E-04

     total cpu time spent up to now is    71054.1 secs

     total energy              =   -2126.06128141 Ry
     estimated scf accuracy    <       0.00000053 Ry

     total magnetization       =    19.00 Bohr mag/cell
     absolute magnetization    =    19.05 Bohr mag/cell

     iteration # 24     ecut=   100.00 Ry     beta= 0.40
     Davidson diagonalization with overlap
     ethr =  2.82E-10,  avg # of iterations =  3.3

     negative rho (up, down):  0.000E+00 9.443E-04

     total cpu time spent up to now is    74167.9 secs

     total energy              =   -2126.06128161 Ry
     estimated scf accuracy    <       0.00000143 Ry

     total magnetization       =    19.00 Bohr mag/cell
     absolute magnetization    =    19.05 Bohr mag/cell

     iteration # 25     ecut=   100.00 Ry     beta= 0.40
     Davidson diagonalization with overlap
     ethr =  2.82E-10,  avg # of iterations =  2.0

     negative rho (up, down):  0.000E+00 9.445E-04

     total cpu time spent up to now is    77002.7 secs

     total energy              =   -2126.06128170 Ry
     estimated scf accuracy    <       0.00000123 Ry

     total magnetization       =    19.00 Bohr mag/cell
     absolute magnetization    =    19.05 Bohr mag/cell

     iteration # 26     ecut=   100.00 Ry     beta= 0.40
     Davidson diagonalization with overlap
     ethr =  2.82E-10,  avg # of iterations =  1.0

     negative rho (up, down):  0.000E+00 9.448E-04

     total cpu time spent up to now is    79700.9 secs

     total energy              =   -2126.06128176 Ry
     estimated scf accuracy    <       0.00000108 Ry

     total magnetization       =    19.00 Bohr mag/cell
     absolute magnetization    =    19.05 Bohr mag/cell

     iteration # 27     ecut=   100.00 Ry     beta= 0.40
     Davidson diagonalization with overlap
     ethr =  2.82E-10,  avg # of iterations =  1.0

     negative rho (up, down):  0.000E+00 9.449E-04

     total cpu time spent up to now is    82405.5 secs

     total energy              =   -2126.06128180 Ry
     estimated scf accuracy    <       0.00000043 Ry

     total magnetization       =    19.00 Bohr mag/cell
     absolute magnetization    =    19.05 Bohr mag/cell

     iteration # 28     ecut=   100.00 Ry     beta= 0.40
     Davidson diagonalization with overlap
     ethr =  2.27E-10,  avg # of iterations =  1.0

     negative rho (up, down):  0.000E+00 9.448E-04

     total cpu time spent up to now is    85107.3 secs

     total energy              =   -2126.06128182 Ry
     estimated scf accuracy    <       0.00000010 Ry

     total magnetization       =    19.00 Bohr mag/cell
     absolute magnetization    =    19.05 Bohr mag/cell

     iteration # 29     ecut=   100.00 Ry     beta= 0.40
     Davidson diagonalization with overlap
     ethr =  5.29E-11,  avg # of iterations =  1.9

     negative rho (up, down):  0.000E+00 9.447E-04

     total cpu time spent up to now is    87916.2 secs

     total energy              =   -2126.06128183 Ry
     estimated scf accuracy    <       0.00000007 Ry

     total magnetization       =    19.00 Bohr mag/cell
     absolute magnetization    =    19.05 Bohr mag/cell

     iteration # 30     ecut=   100.00 Ry     beta= 0.40
     Davidson diagonalization with overlap
     ethr =  3.71E-11,  avg # of iterations =  2.0

     negative rho (up, down):  0.000E+00 9.447E-04

     total cpu time spent up to now is    90844.5 secs

     total energy              =   -2126.06128185 Ry
     estimated scf accuracy    <       0.00000004 Ry

     total magnetization       =    19.00 Bohr mag/cell
     absolute magnetization    =    19.05 Bohr mag/cell

     iteration # 31     ecut=   100.00 Ry     beta= 0.40
     Davidson diagonalization with overlap
     ethr =  1.94E-11,  avg # of iterations =  2.2

     negative rho (up, down):  0.000E+00 9.447E-04

     total cpu time spent up to now is    93711.6 secs

     total energy              =   -2126.06128186 Ry
     estimated scf accuracy    <       0.00000001 Ry

     total magnetization       =    19.00 Bohr mag/cell
     absolute magnetization    =    19.05 Bohr mag/cell

     iteration # 32     ecut=   100.00 Ry     beta= 0.40
     Davidson diagonalization with overlap
     ethr =  7.39E-12,  avg # of iterations =  3.8

     negative rho (up, down):  0.000E+00 9.447E-04

     total cpu time spent up to now is    96969.6 secs

     total energy              =   -2126.06128186 Ry
     estimated scf accuracy    <       0.00000002 Ry

     total magnetization       =    19.00 Bohr mag/cell
     absolute magnetization    =    19.05 Bohr mag/cell

     iteration # 33     ecut=   100.00 Ry     beta= 0.40
     Davidson diagonalization with overlap
     ethr =  7.39E-12,  avg # of iterations =  1.2

     negative rho (up, down):  0.000E+00 9.447E-04

     total cpu time spent up to now is    99688.7 secs

     total energy              =   -2126.06128186 Ry
     estimated scf accuracy    <          1.5E-09 Ry

     total magnetization       =    19.00 Bohr mag/cell
     absolute magnetization    =    19.05 Bohr mag/cell

     iteration # 34     ecut=   100.00 Ry     beta= 0.40
     Davidson diagonalization with overlap
     ethr =  8.10E-13,  avg # of iterations =  4.3

     negative rho (up, down):  0.000E+00 9.447E-04

     total cpu time spent up to now is   103529.1 secs

     total energy              =   -2126.06128186 Ry
     estimated scf accuracy    <          1.5E-09 Ry

     total magnetization       =    19.00 Bohr mag/cell
     absolute magnetization    =    19.05 Bohr mag/cell

     iteration # 35     ecut=   100.00 Ry     beta= 0.40
     Davidson diagonalization with overlap
     ethr =  8.10E-13,  avg # of iterations =  1.0

     negative rho (up, down):  0.000E+00 9.447E-04

     total cpu time spent up to now is   106228.2 secs

     total energy              =   -2126.06128186 Ry
     estimated scf accuracy    <          2.0E-09 Ry

     total magnetization       =    19.00 Bohr mag/cell
     absolute magnetization    =    19.05 Bohr mag/cell

     iteration # 36     ecut=   100.00 Ry     beta= 0.40
     Davidson diagonalization with overlap
     ethr =  8.10E-13,  avg # of iterations =  1.5

     negative rho (up, down):  0.000E+00 9.447E-04

     total cpu time spent up to now is   108979.2 secs

     total energy              =   -2126.06128186 Ry
     estimated scf accuracy    <          5.1E-10 Ry

     total magnetization       =    19.00 Bohr mag/cell
     absolute magnetization    =    19.05 Bohr mag/cell

     iteration # 37     ecut=   100.00 Ry     beta= 0.40
     Davidson diagonalization with overlap
     ethr =  2.72E-13,  avg # of iterations =  2.0

     negative rho (up, down):  0.000E+00 9.447E-04

     total cpu time spent up to now is   111847.7 secs

     total energy              =   -2126.06128186 Ry
     estimated scf accuracy    <          5.6E-10 Ry

     total magnetization       =    19.00 Bohr mag/cell
     absolute magnetization    =    19.05 Bohr mag/cell

     iteration # 38     ecut=   100.00 Ry     beta= 0.40
     Davidson diagonalization with overlap
     ethr =  2.72E-13,  avg # of iterations =  1.0

     negative rho (up, down):  0.000E+00 9.447E-04

     total cpu time spent up to now is   114547.2 secs

     total energy              =   -2126.06128186 Ry
     estimated scf accuracy    <          2.2E-10 Ry

     total magnetization       =    19.00 Bohr mag/cell
     absolute magnetization    =    19.05 Bohr mag/cell

     iteration # 39     ecut=   100.00 Ry     beta= 0.40
     Davidson diagonalization with overlap
     ethr =  1.18E-13,  avg # of iterations =  2.0

     negative rho (up, down):  0.000E+00 9.447E-04

     Magnetic moment per site:
     atom:    1    charge:    7.9929    magn:    0.0008    constr:    0.0000
     atom:    2    charge:   12.9648    magn:    3.6628    constr:    0.0000
     atom:    3    charge:   12.9606    magn:    3.6817    constr:    0.0000
     atom:    4    charge:   12.9647    magn:    3.6628    constr:    0.0000
     atom:    5    charge:   12.9606    magn:    3.6817    constr:    0.0000
     atom:    6    charge:    0.8269    magn:    0.0072    constr:    0.0000
     atom:    7    charge:    0.8255    magn:    0.0094    constr:    0.0000
     atom:    8    charge:    0.8269    magn:    0.0072    constr:    0.0000
     atom:    9    charge:    0.8255    magn:    0.0094    constr:    0.0000
     atom:   10    charge:    4.2684    magn:    0.0819    constr:    0.0000
     atom:   11    charge:    4.2659    magn:    0.1317    constr:    0.0000
     atom:   12    charge:    4.2684    magn:    0.0819    constr:    0.0000
     atom:   13    charge:    4.2659    magn:    0.1317    constr:    0.0000
     atom:   14    charge:    4.2260    magn:    0.1428    constr:    0.0000
     atom:   15    charge:    4.2255    magn:    0.0947    constr:    0.0000
     atom:   16    charge:    4.2260    magn:    0.1428    constr:    0.0000
     atom:   17    charge:    4.2255    magn:    0.0947    constr:    0.0000
     atom:   18    charge:    4.2163    magn:    0.1204    constr:    0.0000
     atom:   19    charge:    4.2120    magn:    0.1470    constr:    0.0000
     atom:   20    charge:    4.2162    magn:    0.1342    constr:    0.0000
     atom:   21    charge:    4.2137    magn:    0.1557    constr:    0.0000
     atom:   22    charge:    4.2163    magn:    0.1203    constr:    0.0000
     atom:   23    charge:    4.2120    magn:    0.1470    constr:    0.0000
     atom:   24    charge:    4.2162    magn:    0.1342    constr:    0.0000
     atom:   25    charge:    4.2137    magn:    0.1557    constr:    0.0000

     total cpu time spent up to now is   117410.6 secs

     End of self-consistent calculation

 ------ SPIN UP ------------


          k = 0.0000 0.0000 0.0000 ( 38991 PWs)   bands (ev):

   -86.1091 -86.1090 -86.0072 -86.0072 -52.2337 -52.2337 -52.1841 -52.1840
   -52.0732 -52.0732 -51.9766 -51.9766 -51.9284 -51.9284 -51.8745 -51.8745
   -45.3969 -17.4052 -17.3741 -17.3476 -16.4560 -16.2658 -16.2451 -16.1193
   -14.1958 -14.1956 -14.1253 -14.0844 -13.9863 -13.9238 -13.8962 -13.8884
   -13.8603 -13.8520 -13.7203 -13.7017  -4.6830  -4.2351  -4.1872  -3.8516
    -2.6793  -2.3972  -2.3260  -2.2080  -1.9177  -1.8167  -1.7843  -1.7182
    -1.5883  -1.4798  -1.1893  -0.9261  -0.8517  -0.8334  -0.4023  -0.3502
    -0.2353  -0.2261  -0.0279   0.1282   0.1619   0.2430   0.3064   0.3551
     0.4314   0.5009   0.6153   0.6465   0.9930   0.9987   1.1140   1.1417
     1.2592   1.2708   1.4257   1.4491   1.4877   1.5575   1.6682   1.7286
     1.8903   1.9532   1.9946   2.0990   2.1105   2.2037   2.2172   2.3981
     2.5159   2.5314   2.5699   2.6288   2.7339   2.9218   2.9955   3.1495
     3.1999   3.2183   3.2688   3.3736   3.4126   3.5290   3.8348   3.9204
     7.8102   9.8125  10.2605  10.6301  10.9751  11.5708  11.8159  11.8808
    12.3468  12.4308

     occupation numbers 
     1.0000   1.0000   1.0000   1.0000   1.0000   1.0000   1.0000   1.0000
     1.0000   1.0000   1.0000   1.0000   1.0000   1.0000   1.0000   1.0000
     1.0000   1.0000   1.0000   1.0000   1.0000   1.0000   1.0000   1.0000
     1.0000   1.0000   1.0000   1.0000   1.0000   1.0000   1.0000   1.0000
     1.0000   1.0000   1.0000   1.0000   1.0000   1.0000   1.0000   1.0000
     1.0000   1.0000   1.0000   1.0000   1.0000   1.0000   1.0000   1.0000
     1.0000   1.0000   1.0000   1.0000   1.0000   1.0000   1.0000   1.0000
     1.0000   1.0000   1.0000   1.0000   1.0000   1.0000   1.0000   1.0000
     1.0000   1.0000   1.0000   1.0000   1.0000   1.0000   1.0000   1.0000
     1.0000   1.0000   1.0000   1.0000   1.0000   1.0000   1.0000   1.0000
     1.0000   1.0000   1.0000   1.0000   1.0000   1.0000   1.0000   1.0000
     1.0000   1.0000   1.0000   1.0000   1.0000   1.0000   1.0000   1.0000
     1.0000   1.0000   1.0000   1.0000   1.0000   1.0000   1.0000   1.0000
     0.0000   0.0000   0.0000   0.0000   0.0000   0.0000   0.0000   0.0000
     0.0000   0.0000

          k = 0.0000 0.0000 0.2415 ( 38977 PWs)   bands (ev):

   -86.1090 -86.1090 -86.0072 -86.0072 -52.2337 -52.2337 -52.1841 -52.1840
   -52.0732 -52.0732 -51.9766 -51.9766 -51.9284 -51.9284 -51.8745 -51.8745
   -45.3969 -17.4046 -17.3741 -17.3492 -16.4389 -16.2570 -16.2394 -16.1178
   -14.2127 -14.2082 -14.1432 -14.1044 -13.9787 -13.9190 -13.8953 -13.8861
   -13.8592 -13.8470 -13.7244 -13.7070  -4.6641  -4.2349  -4.1860  -3.8604
    -2.6352  -2.3665  -2.3215  -2.1863  -1.9155  -1.8436  -1.7738  -1.6699
    -1.5770  -1.4462  -1.2328  -0.9273  -0.8705  -0.8133  -0.3888  -0.3365
    -0.2426  -0.1794  -0.0306   0.1297   0.1519   0.2260   0.2902   0.3536
     0.4393   0.5042   0.6021   0.6493   0.9295   0.9490   1.0636   1.1151
     1.2399   1.3371   1.3815   1.4069   1.4719   1.5498   1.6887   1.8240
     1.8674   1.9732   1.9858   2.0405   2.1308   2.1957   2.2531   2.3390
     2.4949   2.5391   2.5895   2.6304   2.6767   2.9699   3.0004   3.1514
     3.1958   3.2542   3.2829   3.3724   3.4087   3.5386   3.8126   3.9005
     7.9547   9.8854  10.2782  10.6365  11.0416  11.5078  11.7379  11.9371
    12.2426  12.4318

     occupation numbers 
     1.0000   1.0000   1.0000   1.0000   1.0000   1.0000   1.0000   1.0000
     1.0000   1.0000   1.0000   1.0000   1.0000   1.0000   1.0000   1.0000
     1.0000   1.0000   1.0000   1.0000   1.0000   1.0000   1.0000   1.0000
     1.0000   1.0000   1.0000   1.0000   1.0000   1.0000   1.0000   1.0000
     1.0000   1.0000   1.0000   1.0000   1.0000   1.0000   1.0000   1.0000
     1.0000   1.0000   1.0000   1.0000   1.0000   1.0000   1.0000   1.0000
     1.0000   1.0000   1.0000   1.0000   1.0000   1.0000   1.0000   1.0000
     1.0000   1.0000   1.0000   1.0000   1.0000   1.0000   1.0000   1.0000
     1.0000   1.0000   1.0000   1.0000   1.0000   1.0000   1.0000   1.0000
     1.0000   1.0000   1.0000   1.0000   1.0000   1.0000   1.0000   1.0000
     1.0000   1.0000   1.0000   1.0000   1.0000   1.0000   1.0000   1.0000
     1.0000   1.0000   1.0000   1.0000   1.0000   1.0000   1.0000   1.0000
     1.0000   1.0000   1.0000   1.0000   1.0000   1.0000   1.0000   1.0000
     0.0000   0.0000   0.0000   0.0000   0.0000   0.0000   0.0000   0.0000
     0.0000   0.0000

          k = 0.0000 0.0000 0.4830 ( 38986 PWs)   bands (ev):

   -86.1090 -86.1090 -86.0072 -86.0072 -52.2337 -52.2337 -52.1841 -52.1840
   -52.0732 -52.0732 -51.9766 -51.9766 -51.9284 -51.9284 -51.8745 -51.8745
   -45.3969 -17.4047 -17.3734 -17.3516 -16.3928 -16.2360 -16.2239 -16.1151
   -14.2530 -14.2417 -14.1858 -14.1534 -13.9638 -13.9091 -13.8931 -13.8813
   -13.8515 -13.8355 -13.7365 -13.7223  -4.6085  -4.2367  -4.1837  -3.8953
    -2.5152  -2.3061  -2.2834  -2.1526  -1.9050  -1.8560  -1.7741  -1.5973
    -1.4839  -1.3632  -1.3442  -1.0259  -0.8148  -0.7516  -0.3465  -0.3039
    -0.2169  -0.0930  -0.0399   0.1161   0.1346   0.1776   0.2556   0.3546
     0.4500   0.5193   0.5678   0.6382   0.7762   0.8694   0.9866   1.0749
     1.1221   1.2209   1.3441   1.4192   1.4929   1.5287   1.7485   1.8079
     1.9158   1.9666   1.9906   1.9994   2.0463   2.1863   2.2311   2.3371
     2.3918   2.5854   2.6509   2.6663   2.6881   2.9947   3.0261   3.1657
     3.2297   3.3094   3.3192   3.3650   3.4130   3.5582   3.7443   3.8407
     8.3389  10.0850  10.2943  10.6891  11.1965  11.4209  11.5662  11.9105
    12.0844  12.2612

     occupation numbers 
     1.0000   1.0000   1.0000   1.0000   1.0000   1.0000   1.0000   1.0000
     1.0000   1.0000   1.0000   1.0000   1.0000   1.0000   1.0000   1.0000
     1.0000   1.0000   1.0000   1.0000   1.0000   1.0000   1.0000   1.0000
     1.0000   1.0000   1.0000   1.0000   1.0000   1.0000   1.0000   1.0000
     1.0000   1.0000   1.0000   1.0000   1.0000   1.0000   1.0000   1.0000
     1.0000   1.0000   1.0000   1.0000   1.0000   1.0000   1.0000   1.0000
     1.0000   1.0000   1.0000   1.0000   1.0000   1.0000   1.0000   1.0000
     1.0000   1.0000   1.0000   1.0000   1.0000   1.0000   1.0000   1.0000
     1.0000   1.0000   1.0000   1.0000   1.0000   1.0000   1.0000   1.0000
     1.0000   1.0000   1.0000   1.0000   1.0000   1.0000   1.0000   1.0000
     1.0000   1.0000   1.0000   1.0000   1.0000   1.0000   1.0000   1.0000
     1.0000   1.0000   1.0000   1.0000   1.0000   1.0000   1.0000   1.0000
     1.0000   1.0000   1.0000   1.0000   1.0000   1.0000   1.0000   1.0000
     0.0000   0.0000   0.0000   0.0000   0.0000   0.0000   0.0000   0.0000
     0.0000   0.0000

          k = 0.0000 0.0000 0.7246 ( 39012 PWs)   bands (ev):

   -86.1091 -86.1090 -86.0072 -86.0072 -52.2337 -52.2337 -52.1841 -52.1840
   -52.0732 -52.0732 -51.9766 -51.9766 -51.9284 -51.9284 -51.8745 -51.8745
   -45.3969 -17.4079 -17.3719 -17.3513 -16.3318 -16.2249 -16.1956 -16.1159
   -14.2973 -14.2788 -14.2320 -14.2102 -13.9483 -13.9101 -13.8837 -13.8754
   -13.8341 -13.8204 -13.7552 -13.7453  -4.5216  -4.2585  -4.1691  -3.9626
    -2.3781  -2.2514  -2.2079  -2.1344  -1.8849  -1.8356  -1.7637  -1.5608
    -1.4839  -1.2988  -1.2563  -1.1709  -0.6948  -0.6310  -0.2810  -0.2594
    -0.1751  -0.0852   0.0036   0.0541   0.0919   0.1622   0.2248   0.3674
     0.4392   0.4828   0.5759   0.5843   0.6485   0.7315   0.8780   0.9109
     1.0783   1.1335   1.3002   1.3498   1.5163   1.6464   1.7053   1.8094
     1.8402   1.8854   1.9260   2.0030   2.0581   2.0799   2.1635   2.2699
     2.4243   2.6064   2.7202   2.8344   2.8808   2.9945   3.0220   3.1865
     3.2859   3.3308   3.3474   3.3768   3.4574   3.5677   3.6285   3.7437
     8.8598  10.2020  10.3788  10.8026  11.2503  11.2995  11.5496  11.7346
    11.9852  12.0119

     occupation numbers 
     1.0000   1.0000   1.0000   1.0000   1.0000   1.0000   1.0000   1.0000
     1.0000   1.0000   1.0000   1.0000   1.0000   1.0000   1.0000   1.0000
     1.0000   1.0000   1.0000   1.0000   1.0000   1.0000   1.0000   1.0000
     1.0000   1.0000   1.0000   1.0000   1.0000   1.0000   1.0000   1.0000
     1.0000   1.0000   1.0000   1.0000   1.0000   1.0000   1.0000   1.0000
     1.0000   1.0000   1.0000   1.0000   1.0000   1.0000   1.0000   1.0000
     1.0000   1.0000   1.0000   1.0000   1.0000   1.0000   1.0000   1.0000
     1.0000   1.0000   1.0000   1.0000   1.0000   1.0000   1.0000   1.0000
     1.0000   1.0000   1.0000   1.0000   1.0000   1.0000   1.0000   1.0000
     1.0000   1.0000   1.0000   1.0000   1.0000   1.0000   1.0000   1.0000
     1.0000   1.0000   1.0000   1.0000   1.0000   1.0000   1.0000   1.0000
     1.0000   1.0000   1.0000   1.0000   1.0000   1.0000   1.0000   1.0000
     1.0000   1.0000   1.0000   1.0000   1.0000   1.0000   1.0000   1.0000
     0.0000   0.0000   0.0000   0.0000   0.0000   0.0000   0.0000   0.0000
     0.0000   0.0000

          k = 0.0000 0.0000 0.9661 ( 38942 PWs)   bands (ev):

   -86.1090 -86.1090 -86.0072 -86.0072 -52.2337 -52.2337 -52.1841 -52.1840
   -52.0732 -52.0731 -51.9766 -51.9766 -51.9284 -51.9284 -51.8745 -51.8745
   -45.3969 -17.4113 -17.3708 -17.3497 -16.2744 -16.2360 -16.1685 -16.1228
   -14.3251 -14.3023 -14.2596 -14.2511 -13.9340 -13.9200 -13.8780 -13.8675
   -13.8121 -13.8012 -13.7780 -13.7703  -4.4180  -4.3215  -4.1264  -4.0439
    -2.2929  -2.2413  -2.1507  -2.0967  -1.8576  -1.7818  -1.7588  -1.6521
    -1.4535  -1.3310  -1.1705  -1.1527  -0.5057  -0.4374  -0.2761  -0.2158
    -0.2009  -0.1724  -0.0409  -0.0158   0.0910   0.1850   0.2798   0.3605
     0.3838   0.4300   0.4784   0.5616   0.6178   0.6396   0.7217   0.8625
     1.0967   1.1868   1.2242   1.2718   1.5512   1.6601   1.7339   1.7469
     1.7585   1.8150   1.9250   1.9814   2.0176   2.0414   2.1182   2.2554
     2.4469   2.6099   2.7875   2.9460   2.9856   3.0524   3.1398   3.2097
     3.2681   3.3364   3.3527   3.4126   3.4730   3.5263   3.5658   3.6332
     9.4141   9.9073  10.7061  10.9347  11.0549  11.1583  11.5662  11.7003
    11.9304  12.0091

     occupation numbers 
     1.0000   1.0000   1.0000   1.0000   1.0000   1.0000   1.0000   1.0000
     1.0000   1.0000   1.0000   1.0000   1.0000   1.0000   1.0000   1.0000
     1.0000   1.0000   1.0000   1.0000   1.0000   1.0000   1.0000   1.0000
     1.0000   1.0000   1.0000   1.0000   1.0000   1.0000   1.0000   1.0000
     1.0000   1.0000   1.0000   1.0000   1.0000   1.0000   1.0000   1.0000
     1.0000   1.0000   1.0000   1.0000   1.0000   1.0000   1.0000   1.0000
     1.0000   1.0000   1.0000   1.0000   1.0000   1.0000   1.0000   1.0000
     1.0000   1.0000   1.0000   1.0000   1.0000   1.0000   1.0000   1.0000
     1.0000   1.0000   1.0000   1.0000   1.0000   1.0000   1.0000   1.0000
     1.0000   1.0000   1.0000   1.0000   1.0000   1.0000   1.0000   1.0000
     1.0000   1.0000   1.0000   1.0000   1.0000   1.0000   1.0000   1.0000
     1.0000   1.0000   1.0000   1.0000   1.0000   1.0000   1.0000   1.0000
     1.0000   1.0000   1.0000   1.0000   1.0000   1.0000   1.0000   1.0000
     0.0000   0.0000   0.0000   0.0000   0.0000   0.0000   0.0000   0.0000
     0.0000   0.0000

          k = 0.0000 0.2391 0.0000 ( 38987 PWs)   bands (ev):

   -86.1090 -86.1090 -86.0072 -86.0072 -52.2337 -52.2337 -52.1841 -52.1840
   -52.0732 -52.0732 -51.9766 -51.9766 -51.9284 -51.9284 -51.8745 -51.8745
   -45.3969 -17.4055 -17.3742 -17.3476 -16.4405 -16.2648 -16.2424 -16.1360
   -14.1926 -14.1891 -14.1258 -14.0879 -14.0050 -13.9498 -13.9168 -13.8722
   -13.8674 -13.8057 -13.7158 -13.7091  -4.6579  -4.2431  -4.1775  -3.8611
    -2.6550  -2.4019  -2.3143  -2.2096  -1.9076  -1.8225  -1.7525  -1.6948
    -1.5714  -1.4728  -1.1776  -0.9298  -0.8795  -0.8020  -0.3617  -0.3099
    -0.2444  -0.2216  -0.1146   0.0055   0.1184   0.2322   0.3378   0.4321
     0.5039   0.5332   0.6041   0.6414   0.8768   0.8811   0.9808   1.1079
     1.2203   1.3935   1.4283   1.4526   1.5360   1.5893   1.6252   1.7216
     1.8851   1.9527   1.9960   2.0191   2.1406   2.2171   2.3477   2.3941
     2.4793   2.5070   2.5297   2.6769   2.7826   2.9214   2.9844   3.1358
     3.1579   3.2193   3.2730   3.3567   3.3900   3.5721   3.8471   3.9034
     7.9644   9.9047  10.3540  10.5280  11.0426  11.5254  11.8802  11.9491
    12.2413  12.4349

     occupation numbers 
     1.0000   1.0000   1.0000   1.0000   1.0000   1.0000   1.0000   1.0000
     1.0000   1.0000   1.0000   1.0000   1.0000   1.0000   1.0000   1.0000
     1.0000   1.0000   1.0000   1.0000   1.0000   1.0000   1.0000   1.0000
     1.0000   1.0000   1.0000   1.0000   1.0000   1.0000   1.0000   1.0000
     1.0000   1.0000   1.0000   1.0000   1.0000   1.0000   1.0000   1.0000
     1.0000   1.0000   1.0000   1.0000   1.0000   1.0000   1.0000   1.0000
     1.0000   1.0000   1.0000   1.0000   1.0000   1.0000   1.0000   1.0000
     1.0000   1.0000   1.0000   1.0000   1.0000   1.0000   1.0000   1.0000
     1.0000   1.0000   1.0000   1.0000   1.0000   1.0000   1.0000   1.0000
     1.0000   1.0000   1.0000   1.0000   1.0000   1.0000   1.0000   1.0000
     1.0000   1.0000   1.0000   1.0000   1.0000   1.0000   1.0000   1.0000
     1.0000   1.0000   1.0000   1.0000   1.0000   1.0000   1.0000   1.0000
     1.0000   1.0000   1.0000   1.0000   1.0000   1.0000   1.0000   1.0000
     0.0000   0.0000   0.0000   0.0000   0.0000   0.0000   0.0000   0.0000
     0.0000   0.0000

          k = 0.0000 0.2391 0.2415 ( 38961 PWs)   bands (ev):

   -86.1090 -86.1090 -86.0072 -86.0072 -52.2337 -52.2337 -52.1841 -52.1840
   -52.0732 -52.0732 -51.9766 -51.9766 -51.9284 -51.9284 -51.8745 -51.8745
   -45.3969 -17.4044 -17.3742 -17.3492 -16.4257 -16.2529 -16.2397 -16.1323
   -14.2095 -14.2029 -14.1449 -14.1090 -13.9920 -13.9451 -13.9110 -13.8764
   -13.8665 -13.8021 -13.7210 -13.7123  -4.6395  -4.2418  -4.1755  -3.8706
    -2.6117  -2.3713  -2.3059  -2.1915  -1.9059  -1.8373  -1.7436  -1.6576
    -1.5485  -1.4441  -1.2198  -0.9796  -0.8471  -0.7865  -0.3518  -0.3090
    -0.2399  -0.1796  -0.1274   0.0077   0.0956   0.2358   0.3133   0.4303
     0.4924   0.5236   0.6039   0.6484   0.8173   0.8551   0.9440   1.0811
     1.3320   1.3786   1.4120   1.4333   1.5039   1.5794   1.6156   1.7719
     1.8780   1.9602   1.9686   2.0152   2.1335   2.1894   2.3025   2.3989
     2.4572   2.5161   2.5516   2.6472   2.7322   2.9714   3.0023   3.1266
     3.1650   3.2494   3.2880   3.3513   3.3956   3.5842   3.8305   3.8924
     8.1026   9.9796  10.3749  10.5467  11.0893  11.4867  11.8002  11.9698
    12.2165  12.4052

     occupation numbers 
     1.0000   1.0000   1.0000   1.0000   1.0000   1.0000   1.0000   1.0000
     1.0000   1.0000   1.0000   1.0000   1.0000   1.0000   1.0000   1.0000
     1.0000   1.0000   1.0000   1.0000   1.0000   1.0000   1.0000   1.0000
     1.0000   1.0000   1.0000   1.0000   1.0000   1.0000   1.0000   1.0000
     1.0000   1.0000   1.0000   1.0000   1.0000   1.0000   1.0000   1.0000
     1.0000   1.0000   1.0000   1.0000   1.0000   1.0000   1.0000   1.0000
     1.0000   1.0000   1.0000   1.0000   1.0000   1.0000   1.0000   1.0000
     1.0000   1.0000   1.0000   1.0000   1.0000   1.0000   1.0000   1.0000
     1.0000   1.0000   1.0000   1.0000   1.0000   1.0000   1.0000   1.0000
     1.0000   1.0000   1.0000   1.0000   1.0000   1.0000   1.0000   1.0000
     1.0000   1.0000   1.0000   1.0000   1.0000   1.0000   1.0000   1.0000
     1.0000   1.0000   1.0000   1.0000   1.0000   1.0000   1.0000   1.0000
     1.0000   1.0000   1.0000   1.0000   1.0000   1.0000   1.0000   1.0000
     0.0000   0.0000   0.0000   0.0000   0.0000   0.0000   0.0000   0.0000
     0.0000   0.0000

          k = 0.0000 0.2391 0.4830 ( 38996 PWs)   bands (ev):

   -86.1090 -86.1090 -86.0072 -86.0072 -52.2337 -52.2337 -52.1841 -52.1840
   -52.0732 -52.0732 -51.9766 -51.9766 -51.9284 -51.9284 -51.8745 -51.8745
   -45.3969 -17.4041 -17.3735 -17.3516 -16.3825 -16.2309 -16.2251 -16.1264
   -14.2502 -14.2398 -14.1884 -14.1588 -13.9719 -13.9332 -13.8984 -13.8838
   -13.8594 -13.7949 -13.7333 -13.7232  -4.5852  -4.2434  -4.1698  -3.9044
    -2.4953  -2.2959  -2.2784  -2.1593  -1.8930  -1.8512  -1.7387  -1.5661
    -1.4772  -1.3646  -1.3264  -1.0738  -0.7885  -0.7439  -0.3215  -0.2869
    -0.2174  -0.1764  -0.0867   0.0112   0.0954   0.2263   0.2712   0.4112
     0.4592   0.5294   0.5865   0.6461   0.7110   0.8099   0.8855   1.0732
     1.1780   1.3239   1.3948   1.4427   1.4806   1.5191   1.7067   1.7911
     1.8648   1.9114   1.9580   2.0287   2.0641   2.1579   2.2164   2.3473
     2.4239   2.5292   2.6044   2.7019   2.7222   2.9999   3.0238   3.1763
     3.1833   3.2677   3.3210   3.3663   3.4182   3.5978   3.7881   3.8493
     8.4732  10.1797  10.4003  10.6223  11.2269  11.4260  11.6312  11.9342
    12.0832  12.2810

     occupation numbers 
     1.0000   1.0000   1.0000   1.0000   1.0000   1.0000   1.0000   1.0000
     1.0000   1.0000   1.0000   1.0000   1.0000   1.0000   1.0000   1.0000
     1.0000   1.0000   1.0000   1.0000   1.0000   1.0000   1.0000   1.0000
     1.0000   1.0000   1.0000   1.0000   1.0000   1.0000   1.0000   1.0000
     1.0000   1.0000   1.0000   1.0000   1.0000   1.0000   1.0000   1.0000
     1.0000   1.0000   1.0000   1.0000   1.0000   1.0000   1.0000   1.0000
     1.0000   1.0000   1.0000   1.0000   1.0000   1.0000   1.0000   1.0000
     1.0000   1.0000   1.0000   1.0000   1.0000   1.0000   1.0000   1.0000
     1.0000   1.0000   1.0000   1.0000   1.0000   1.0000   1.0000   1.0000
     1.0000   1.0000   1.0000   1.0000   1.0000   1.0000   1.0000   1.0000
     1.0000   1.0000   1.0000   1.0000   1.0000   1.0000   1.0000   1.0000
     1.0000   1.0000   1.0000   1.0000   1.0000   1.0000   1.0000   1.0000
     1.0000   1.0000   1.0000   1.0000   1.0000   1.0000   1.0000   1.0000
     0.0000   0.0000   0.0000   0.0000   0.0000   0.0000   0.0000   0.0000
     0.0000   0.0000

          k = 0.0000 0.2391 0.7246 ( 38953 PWs)   bands (ev):

   -86.1090 -86.1090 -86.0072 -86.0072 -52.2337 -52.2337 -52.1841 -52.1840
   -52.0732 -52.0732 -51.9766 -51.9766 -51.9284 -51.9284 -51.8745 -51.8745
   -45.3969 -17.4072 -17.3719 -17.3514 -16.3241 -16.2242 -16.1923 -16.1237
   -14.2968 -14.2791 -14.2348 -14.2150 -13.9532 -13.9247 -13.8923 -13.8816
   -13.8472 -13.7851 -13.7496 -13.7408  -4.5012  -4.2630  -4.1535  -3.9676
    -2.3605  -2.2326  -2.2126  -2.1375  -1.8710  -1.8352  -1.7246  -1.5384
    -1.4584  -1.2966  -1.2565  -1.1988  -0.6851  -0.6616  -0.2753  -0.2655
    -0.2422  -0.1862  -0.0391   0.0835   0.1300   0.1911   0.2213   0.3665
     0.4515   0.5192   0.5670   0.6117   0.6194   0.7637   0.8057   0.9225
     1.0623   1.1939   1.3471   1.3560   1.5079   1.6246   1.7049   1.7294
     1.8350   1.8743   1.9167   1.9949   2.0333   2.0873   2.1722   2.2583
     2.4215   2.5340   2.6994   2.8070   2.8832   2.9872   3.0334   3.1936
     3.2142   3.2865   3.3626   3.3781   3.4849   3.6001   3.7213   3.7768
     8.9812  10.3122  10.4719  10.7703  11.2842  11.3793  11.5664  11.7769
    11.9569  11.9930

     occupation numbers 
     1.0000   1.0000   1.0000   1.0000   1.0000   1.0000   1.0000   1.0000
     1.0000   1.0000   1.0000   1.0000   1.0000   1.0000   1.0000   1.0000
     1.0000   1.0000   1.0000   1.0000   1.0000   1.0000   1.0000   1.0000
     1.0000   1.0000   1.0000   1.0000   1.0000   1.0000   1.0000   1.0000
     1.0000   1.0000   1.0000   1.0000   1.0000   1.0000   1.0000   1.0000
     1.0000   1.0000   1.0000   1.0000   1.0000   1.0000   1.0000   1.0000
     1.0000   1.0000   1.0000   1.0000   1.0000   1.0000   1.0000   1.0000
     1.0000   1.0000   1.0000   1.0000   1.0000   1.0000   1.0000   1.0000
     1.0000   1.0000   1.0000   1.0000   1.0000   1.0000   1.0000   1.0000
     1.0000   1.0000   1.0000   1.0000   1.0000   1.0000   1.0000   1.0000
     1.0000   1.0000   1.0000   1.0000   1.0000   1.0000   1.0000   1.0000
     1.0000   1.0000   1.0000   1.0000   1.0000   1.0000   1.0000   1.0000
     1.0000   1.0000   1.0000   1.0000   1.0000   1.0000   1.0000   1.0000
     0.0000   0.0000   0.0000   0.0000   0.0000   0.0000   0.0000   0.0000
     0.0000   0.0000

          k = 0.0000 0.2391 0.9661 ( 38944 PWs)   bands (ev):

   -86.1090 -86.1090 -86.0072 -86.0072 -52.2337 -52.2337 -52.1841 -52.1840
   -52.0732 -52.0731 -51.9766 -51.9766 -51.9284 -51.9284 -51.8745 -51.8745
   -45.3969 -17.4108 -17.3708 -17.3497 -16.2681 -16.2331 -16.1674 -16.1281
   -14.3266 -14.3043 -14.2626 -14.2543 -13.9381 -13.9307 -13.8920 -13.8710
   -13.8307 -13.7771 -13.7637 -13.7583  -4.4026  -4.3173  -4.1167  -4.0426
[...]
     atom    4 type  1   force =     0.04076251   -0.00549326   -0.06833598
     atom    5 type  1   force =     0.13729813    0.06705173   -0.08491207
     atom    6 type  4   force =    -0.03651876   -0.00052516   -0.07550145
     atom    7 type  4   force =     0.03758782    0.00457902   -0.09034694
     atom    8 type  4   force =     0.03650284    0.00052313    0.07544457
     atom    9 type  4   force =    -0.03758709   -0.00457558    0.09037506
     atom   10 type  3   force =     0.21095668    0.02090262   -1.51014547
     atom   11 type  3   force =    -0.34856303    0.02262203   -1.52652871
     atom   12 type  3   force =    -0.21099804   -0.02091507    1.51010843
     atom   13 type  3   force =     0.34855089   -0.02262094    1.52653924
     atom   14 type  3   force =     1.20426517   -0.01575726   -0.66301973
     atom   15 type  3   force =    -1.23371364    0.00197301   -0.54264204
     atom   16 type  3   force =    -1.20427104    0.01575839    0.66300225
     atom   17 type  3   force =     1.23368018   -0.00195494    0.54267707
     atom   18 type  3   force =    -0.63363037   -1.13023323    0.63216697
     atom   19 type  3   force =     0.56376603    1.14686118    0.69311127
     atom   20 type  3   force =     0.57000761   -1.11686896   -0.77118047
     atom   21 type  3   force =    -0.52095480    1.11545672   -0.68839875
     atom   22 type  3   force =     0.63364967    1.13025395   -0.63213719
     atom   23 type  3   force =    -0.56374722   -1.14685145   -0.69312139
     atom   24 type  3   force =    -0.56999624    1.11683719    0.77120550
     atom   25 type  3   force =     0.52096331   -1.11545997    0.68839102
     The ionic contribution  to forces
     atom    1 type  2   force =     0.00078168   -0.00036254    0.00027017
     atom    2 type  1   force =    10.20092798   -1.54788843   -0.68468356
     atom    3 type  1   force =     0.80524133    1.04869386   -0.71602889
     atom    4 type  1   force =   -10.20139119    1.54814171    0.68473998
     atom    5 type  1   force =    -0.80543984   -1.04884724    0.71597050
     atom    6 type  4   force =    -1.71682511   -1.62568223    0.39798536
     atom    7 type  4   force =     4.60641930    0.04528648   -0.05008184
     atom    8 type  4   force =     1.71686287    1.62578871   -0.39842820
     atom    9 type  4   force =    -4.60652078   -0.04528191    0.05025469
     atom   10 type  3   force =    -5.65056575   -2.45180679    2.17377140
     atom   11 type  3   force =    10.88920615   -0.08546277    2.91704203
     atom   12 type  3   force =     5.65092289    2.45200868   -2.17318541
     atom   13 type  3   force =   -10.88927966    0.08543873   -2.91720136
     atom   14 type  3   force =     2.78649255    0.09201062    5.70966185
     atom   15 type  3   force =    -0.43381077    2.64183408    3.53603506
     atom   16 type  3   force =    -2.78664379   -0.09200082   -5.70962426
     atom   17 type  3   force =     0.43430501   -2.64189932   -3.53608659
     atom   18 type  3   force =     1.24960898    2.88022560   -0.54791896
     atom   19 type  3   force =     5.19187015   -3.26793612   -2.40424007
     atom   20 type  3   force =     1.54886935    2.67181522    2.75276049
     atom   21 type  3   force =    -4.77559017   -3.13307353    2.26966550
     atom   22 type  3   force =    -1.24988243   -2.88019776    0.54757411
     atom   23 type  3   force =    -5.19213236    3.26786684    2.40428553
     atom   24 type  3   force =    -1.54886689   -2.67169708   -2.75285219
     atom   25 type  3   force =     4.77544050    3.13302599   -2.26968534
     The local contribution  to forces
     atom    1 type  2   force =    -0.00079027    0.00036741   -0.00026035
     atom    2 type  1   force =   -10.14968756    1.54217459    0.61927414
     atom    3 type  1   force =    -0.66701602   -0.97783393    0.63159508
     atom    4 type  1   force =    10.15016574   -1.54242705   -0.61929549
     atom    5 type  1   force =     0.66722682    0.97798413   -0.63156621
     atom    6 type  4   force =     1.73758377    1.62257019   -0.36334996
     atom    7 type  4   force =    -4.62510520   -0.04956676    0.09698893
     atom    8 type  4   force =    -1.73761811   -1.62267312    0.36377169
     atom    9 type  4   force =     4.62520566    0.04956174   -0.09715107
     atom   10 type  3   force =     5.45213495    2.43273215   -0.67307047
     atom   11 type  3   force =   -10.55843844    0.06349934   -1.39752394
     atom   12 type  3   force =    -5.45244452   -2.43292017    0.67257608
     atom   13 type  3   force =    10.55853232   -0.06347616    1.39764377
     atom   14 type  3   force =    -3.93230471   -0.07684911   -5.06938099
     atom   15 type  3   force =     1.60423001   -2.64398772   -3.01023832
     atom   16 type  3   force =     3.93245742    0.07683822    5.06935749
     atom   17 type  3   force =    -1.60469009    2.64403569    3.01026288
     atom   18 type  3   force =    -0.64197919   -1.80198937   -0.06667695
     atom   19 type  3   force =    -5.73235925    2.17558194    1.73046728
     atom   20 type  3   force =    -2.09479561   -1.60659979   -2.00411006
     atom   21 type  3   force =     5.27492016    2.07040394   -1.60092723
     atom   22 type  3   force =     0.64222837    1.80192787    0.06699126
     atom   23 type  3   force =     5.73260234   -2.17553980   -1.73050254
     atom   24 type  3   force =     2.09477929    1.60652564    2.00417772
     atom   25 type  3   force =    -5.27477823   -2.07033866    1.60095682
     The core correction contribution to forces
     atom    1 type  2   force =     0.00000000    0.00000000    0.00000000
     atom    2 type  1   force =     0.00009600   -0.00018105    0.00024412
     atom    3 type  1   force =     0.00185731    0.00054928   -0.00073011
     atom    4 type  1   force =    -0.00009592    0.00018100   -0.00024417
     atom    5 type  1   force =    -0.00185768   -0.00054937    0.00073019
     atom    6 type  4   force =     0.00305770    0.00049140    0.00642875
     atom    7 type  4   force =    -0.00330591   -0.00028993    0.00796810
     atom    8 type  4   force =    -0.00305626   -0.00049130   -0.00642356
     atom    9 type  4   force =     0.00330575    0.00028960   -0.00797073
     atom   10 type  3   force =    -0.00267790   -0.00018834    0.01315851
     atom   11 type  3   force =     0.00394100   -0.00022405    0.01332536
     atom   12 type  3   force =     0.00267825    0.00018843   -0.01315900
     atom   13 type  3   force =    -0.00394091    0.00022404   -0.01332504
     atom   14 type  3   force =    -0.01112863    0.00015797    0.00665310
     atom   15 type  3   force =     0.01130746   -0.00011359    0.00553673
     atom   16 type  3   force =     0.01112866   -0.00015798   -0.00665291
     atom   17 type  3   force =    -0.01130736    0.00011341   -0.00553717
     atom   18 type  3   force =     0.00584534    0.01052492   -0.00604451
     atom   19 type  3   force =    -0.00525845   -0.01063980   -0.00658083
     atom   20 type  3   force =    -0.00527311    0.01028398    0.00742530
     atom   21 type  3   force =     0.00482580   -0.01033162    0.00656098
     atom   22 type  3   force =    -0.00584541   -0.01052501    0.00604417
     atom   23 type  3   force =     0.00525833    0.01063985    0.00658101
     atom   24 type  3   force =     0.00527306   -0.01028378   -0.00742562
     atom   25 type  3   force =    -0.00482584    0.01033157   -0.00656087
     The Hubbard contrib.    to forces
     atom    1 type  2   force =     0.00000000    0.00000000    0.00000000
     atom    2 type  1   force =     0.00000000    0.00000000    0.00000000
     atom    3 type  1   force =     0.00000000    0.00000000    0.00000000
     atom    4 type  1   force =     0.00000000    0.00000000    0.00000000
     atom    5 type  1   force =     0.00000000    0.00000000    0.00000000
     atom    6 type  4   force =     0.00000000    0.00000000    0.00000000
     atom    7 type  4   force =     0.00000000    0.00000000    0.00000000
     atom    8 type  4   force =     0.00000000    0.00000000    0.00000000
     atom    9 type  4   force =     0.00000000    0.00000000    0.00000000
     atom   10 type  3   force =     0.00000000    0.00000000    0.00000000
     atom   11 type  3   force =     0.00000000    0.00000000    0.00000000
     atom   12 type  3   force =     0.00000000    0.00000000    0.00000000
     atom   13 type  3   force =     0.00000000    0.00000000    0.00000000
     atom   14 type  3   force =     0.00000000    0.00000000    0.00000000
     atom   15 type  3   force =     0.00000000    0.00000000    0.00000000
     atom   16 type  3   force =     0.00000000    0.00000000    0.00000000
     atom   17 type  3   force =     0.00000000    0.00000000    0.00000000
     atom   18 type  3   force =     0.00000000    0.00000000    0.00000000
     atom   19 type  3   force =     0.00000000    0.00000000    0.00000000
     atom   20 type  3   force =     0.00000000    0.00000000    0.00000000
     atom   21 type  3   force =     0.00000000    0.00000000    0.00000000
     atom   22 type  3   force =     0.00000000    0.00000000    0.00000000
     atom   23 type  3   force =     0.00000000    0.00000000    0.00000000
     atom   24 type  3   force =     0.00000000    0.00000000    0.00000000
     atom   25 type  3   force =     0.00000000    0.00000000    0.00000000
     The SCF correction term to forces
     atom    1 type  2   force =     0.00000130    0.00000302    0.00000020
     atom    2 type  1   force =    -0.00000213   -0.00000032    0.00000040
     atom    3 type  1   force =    -0.00000204   -0.00000007   -0.00000024
     atom    4 type  1   force =    -0.00000010    0.00000013   -0.00000008
     atom    5 type  1   force =     0.00000138   -0.00000052    0.00000052
     atom    6 type  4   force =    -0.00000050   -0.00000016    0.00000021
     atom    7 type  4   force =    -0.00000111    0.00000002   -0.00000044
     atom    8 type  4   force =     0.00000119    0.00000001    0.00000024
     atom    9 type  4   force =    -0.00000034   -0.00000006   -0.00000007
     atom   10 type  3   force =    -0.00000345    0.00000003   -0.00000293
     atom   11 type  3   force =    -0.00000350    0.00000009    0.00000275
     atom   12 type  3   force =    -0.00000005    0.00000015   -0.00000099
     atom   13 type  3   force =    -0.00000276    0.00000001    0.00000193
     atom   14 type  3   force =     0.00000386    0.00000016    0.00000121
     atom   15 type  3   force =     0.00000426    0.00000017   -0.00000126
     atom   16 type  3   force =     0.00000085    0.00000002    0.00000066
     atom   17 type  3   force =     0.00000399    0.00000005   -0.00000070
     atom   18 type  3   force =    -0.00000175    0.00000558    0.00000324
     atom   19 type  3   force =    -0.00000150    0.00000662   -0.00000339
     atom   20 type  3   force =     0.00000076   -0.00000455    0.00000206
     atom   21 type  3   force =    -0.00000132   -0.00000413   -0.00000233
     atom   22 type  3   force =     0.00000053    0.00000425    0.00000188
     atom   23 type  3   force =    -0.00000133    0.00000404   -0.00000225
     atom   24 type  3   force =    -0.00000147   -0.00000605    0.00000316
     atom   25 type  3   force =    -0.00000156   -0.00000685   -0.00000352

     Total force =     0.189216     Total SCF correction =     0.000021


     Computing stress (Cartesian axis) and pressure


     negative rho (up, down):  0.000E+00 9.447E-04
          total   stress  (Ry/bohr**3)                   (kbar)     P=     -110.31
  -0.00112415   0.00001250   0.00001086         -165.37        1.84        1.60
   0.00001250  -0.00081679  -0.00000889            1.84     -120.15       -1.31
   0.00001086  -0.00000889  -0.00030862            1.60       -1.31      -45.40

     kinetic stress (kbar)  24480.53     20.50     -2.82
                               20.50  24695.00      0.49
                               -2.82      0.49  24582.75

     local   stress (kbar)  -4796.39   2539.95   -794.07
                             2539.95 -14168.53    891.47
                             -794.07    891.47  -7849.05

     nonloc. stress (kbar)  -6211.89      1.36      1.86
                                1.36  -6166.65      1.51
                                1.86      1.51  -6151.27

     hartree stress (kbar)  11964.31  -1032.89    309.49
                            -1032.89  17007.36   -364.87
                              309.49   -364.87  13849.82

     exc-cor stress (kbar)  -2602.45     -1.31      0.61
                               -1.31  -2608.63     -0.31
                                0.61     -0.31  -2606.73

     corecor stress (kbar)  -2914.49      0.41     -0.58
                                0.41  -2914.54     -0.04
                               -0.58     -0.04  -2917.47

     ewald   stress (kbar) -20084.98  -1526.19    487.10
                            -1526.19 -15964.17   -529.55
                              487.10   -529.55 -18953.45

     hubbard stress (kbar)      0.00      0.00      0.00
                                0.00      0.00      0.00
                                0.00      0.00      0.00

     DFT-D   stress (kbar)      0.00      0.00      0.00
                                0.00      0.00      0.00
                                0.00      0.00      0.00

     XDM     stress (kbar)      0.00      0.00      0.00
                                0.00      0.00      0.00
                                0.00      0.00      0.00

     dft-nl  stress (kbar)      0.00      0.00      0.00
                                0.00      0.00      0.00
                                0.00      0.00      0.00

     TS-vdW  stress (kbar)      0.00      0.00      0.00
                                0.00      0.00      0.00
                                0.00      0.00      0.00



     init_run     :   1142.69s CPU   1321.62s WALL (       1 calls)
     electrons    : 101016.91s CPU 116064.50s WALL (       1 calls)
     forces       :    148.75s CPU    169.42s WALL (       1 calls)
     stress       :    697.75s CPU    790.03s WALL (       1 calls)

     Called by init_run:
     wfcinit      :   1126.59s CPU   1303.02s WALL (       1 calls)
     wfcinit:atom :      0.63s CPU      0.76s WALL (     316 calls)
     wfcinit:wfcr :   1121.44s CPU   1296.79s WALL (     316 calls)
     potinit      :      7.97s CPU      8.95s WALL (       1 calls)
     hinit0       :      4.93s CPU      5.63s WALL (       1 calls)

     Called by electrons:
     c_bands      :  83415.10s CPU  95886.91s WALL (      39 calls)
     sum_band     :  17315.93s CPU  19846.93s WALL (      39 calls)
     v_of_rho     :    100.76s CPU    116.12s WALL (      40 calls)
     v_h          :      8.76s CPU     10.49s WALL (      40 calls)
     v_xc         :     96.36s CPU    110.79s WALL (      42 calls)
     newd         :     68.61s CPU     79.51s WALL (      40 calls)
     PAW_pot      :     22.63s CPU     26.09s WALL (      40 calls)
     mix_rho      :     80.00s CPU     92.37s WALL (      39 calls)

     Called by c_bands:
     init_us_2    :     71.81s CPU     78.06s WALL (   25596 calls)
     cegterg      :  82463.99s CPU  94742.15s WALL (   12324 calls)

     Called by sum_band:
     sum_band:wei :      0.69s CPU      0.78s WALL (      39 calls)
     sum_band:loo :  17197.40s CPU  19707.24s WALL (      39 calls)
     sum_band:buf :     17.21s CPU     17.86s WALL (   12324 calls)
     sum_band:ini :     28.29s CPU     29.77s WALL (   12324 calls)
     sum_band:cal :   1177.86s CPU   1364.35s WALL (   12324 calls)
     sum_band:bec :      2.77s CPU      2.78s WALL (   12324 calls)
     addusdens    :     91.01s CPU    108.77s WALL (      39 calls)
     addusd:skk   :      0.76s CPU      0.94s WALL (     117 calls)
     addusd:dgemm :      7.29s CPU     11.23s WALL (     234 calls)
     addusd:qvan2 :     82.12s CPU     95.45s WALL (     234 calls)

     Called by *egterg:
     cdiaghg      :   1367.12s CPU   1602.86s WALL (   42798 calls)
     cegterg:over :   4517.61s CPU   5184.10s WALL (   30474 calls)
     cegterg:upda :    190.20s CPU    207.34s WALL (   30474 calls)
     cegterg:last :    374.25s CPU    423.48s WALL (   19798 calls)
     h_psi        :  72821.77s CPU  83677.16s WALL (   43114 calls)
     s_psi        :    408.78s CPU    477.96s WALL (   43114 calls)
     g_psi        :     21.17s CPU     27.61s WALL (   30474 calls)

     Called by h_psi:
     h_psi:calbec :   3515.24s CPU   4064.67s WALL (   43114 calls)
     vloc_psi     :  68827.29s CPU  79054.81s WALL (   43114 calls)
     add_vuspsi   :    432.03s CPU    505.48s WALL (   43114 calls)

     General routines
     calbec       :   4964.00s CPU   5735.27s WALL (   57018 calls)
     fft          :    157.69s CPU    181.09s WALL (    1038 calls)
     ffts         :      2.45s CPU      2.78s WALL (     158 calls)
     fftw         :  83945.03s CPU  96483.11s WALL ( 7490822 calls)
     interpolate  :     12.18s CPU     14.12s WALL (      80 calls)

     Parallel routines
     fft_scatt_xy :    373.72s CPU    378.48s WALL ( 7492018 calls)
     fft_scatt_yz :  82302.09s CPU  94841.36s WALL ( 7492018 calls)

     PAW routines
     PAW_pot      :     22.63s CPU     26.09s WALL (      40 calls)

     PWSCF        :   1d 4h37m CPU   1d 8h52m WALL


   This run was terminated on:   9:33:50  30Dec2022            

=------------------------------------------------------------------------------=
   JOB DONE.
=------------------------------------------------------------------------------=
Note: The following floating-point exceptions are signalling: IEEE_DENORMAL
Note: The following floating-point exceptions are signalling: IEEE_DENORMAL
Note: The following floating-point exceptions are signalling: IEEE_DENORMAL
Note: The following floating-point exceptions are signalling: IEEE_DENORMAL
Note: The following floating-point exceptions are signalling: IEEE_INVALID_FLAG IEEE_DENORMAL
Note: The following floating-point exceptions are signalling: IEEE_DENORMAL
Note: The following floating-point exceptions are signalling: IEEE_DENORMAL
Note: The following floating-point exceptions are signalling: IEEE_INVALID_FLAG IEEE_DENORMAL
Note: The following floating-point exceptions are signalling: IEEE_DENORMAL
Note: The following floating-point exceptions are signalling: IEEE_DENORMAL
Note: The following floating-point exceptions are signalling: IEEE_DENORMAL
Note: The following floating-point exceptions are signalling: IEEE_INVALID_FLAG IEEE_DENORMAL
Note: The following floating-point exceptions are signalling: IEEE_DENORMAL
Note: The following floating-point exceptions are signalling: IEEE_DENORMAL
Note: The following floating-point exceptions are signalling: IEEE_DENORMAL
Note: The following floating-point exceptions are signalling: IEEE_DENORMAL
Note: The following floating-point exceptions are signalling: IEEE_UNDERFLOW_FLAG IEEE_DENORMAL
Note: The following floating-point exceptions are signalling: IEEE_DENORMAL
Note: The following floating-point exceptions are signalling: IEEE_DENORMAL
Note: The following floating-point exceptions are signalling: IEEE_DENORMAL
Note: The following floating-point exceptions are signalling: IEEE_DENORMAL
Note: The following floating-point exceptions are signalling: IEEE_DENORMAL
Note: The following floating-point exceptions are signalling: IEEE_DENORMAL
Note: The following floating-point exceptions are signalling: IEEE_DENORMAL
Note: The following floating-point exceptions are signalling: IEEE_DENORMAL
Note: The following floating-point exceptions are signalling: IEEE_DENORMAL
Note: The following floating-point exceptions are signalling: IEEE_DENORMAL
Note: The following floating-point exceptions are signalling: IEEE_DENORMAL
Note: The following floating-point exceptions are signalling: IEEE_DENORMAL
