
     Program PWSCF v.6.7MaX starts on 25Dec2022 at 18: 4:36 

     This program is part of the open-source Quantum ESPRESSO suite
     for quantum simulation of materials; please cite
         "P. Giannozzi et al., J. Phys.:Condens. Matter 21 395502 (2009);
         "P. Giannozzi et al., J. Phys.:Condens. Matter 29 465901 (2017);
          URL http://www.quantum-espresso.org", 
     in publications or presentations arising from this work. More details at
     http://www.quantum-espresso.org/quote

     Parallel version (MPI), running on    12 processors

     MPI processes distributed on     1 nodes
     R & G space division:  proc/nbgrp/npool/nimage =      12
     Reading input from scale_1da-02.in

     Current dimensions of program PWSCF are:
     Max number of different atomic species (ntypx) = 10
     Max number of k-points (npk) =  40000
     Max angular momentum in pseudopotentials (lmaxx) =  3
     Message from routine read_pp_mesh:
     mesh size missing, using the one in header
     file Fe.pbe-spn-kjpaw_psl.0.2.1.UPF: wavefunction(s)  3D renormalized
     file O.pbe-n-kjpaw_psl.0.1.UPF: wavefunction(s)  2P renormalized

     Subspace diagonalization in iterative solution of the eigenvalue problem:
     a serial algorithm will be used


     Parallelization info
     --------------------
     sticks:   dense  smooth     PW     G-vecs:    dense   smooth      PW
     Min        1629     602    163               106121    23921    3367
     Max        1630     604    164               106123    23922    3369
     Sum       19549    7233   1959              1273469   287059   40409



     bravais-lattice index     =            0
     lattice parameter (alat)  =      19.3373  a.u.
     unit-cell volume          =    2124.3518 (a.u.)^3
     number of atoms/cell      =           25
     number of atomic types    =            4
     number of electrons       =       189.00
     number of Kohn-Sham states=          114
     kinetic-energy cutoff     =     100.0000  Ry
     charge density cutoff     =    1080.0000  Ry
     scf convergence threshold =      2.0E-10
     mixing beta               =       0.4000
     number of iterations used =            8  plain     mixing
     Exchange-correlation= PBE
                           (   1   4   3   4   0   0   0)

     celldm(1)=  19.337306  celldm(2)=   0.000000  celldm(3)=   0.000000
     celldm(4)=   0.000000  celldm(5)=   0.000000  celldm(6)=   0.000000

     crystal axes: (cart. coord. in units of alat)
               a(1) = (   1.000000   0.000000   0.000000 )  
               a(2) = (   0.000000   0.607719   0.000000 )  
               a(3) = (   0.000000   0.000000   0.483433 )  

     reciprocal axes: (cart. coord. in units 2 pi/alat)
               b(1) = (  1.000000  0.000000  0.000000 )  
               b(2) = (  0.000000  1.645499  0.000000 )  
               b(3) = (  0.000000  0.000000  2.068540 )  


     PseudoPot. # 1 for Fe read from file:
     /opt/QEpot/SSSP_precision_pseudos/Fe.pbe-spn-kjpaw_psl.0.2.1.UPF
     MD5 check sum: e86618425769142926afa95317d90200
     Pseudo is Projector augmented-wave + core cor, Zval = 16.0
     Generated using "atomic" code by A. Dal Corso  v.5.0.99 svn rev. 10869
     Shape of augmentation charge: PSQ
     Using radial grid of 1191 points,  6 beta functions with: 
                l(1) =   0
                l(2) =   0
                l(3) =   1
                l(4) =   1
                l(5) =   2
                l(6) =   2
     Q(r) pseudized with 0 coefficients 


     PseudoPot. # 2 for Na read from file:
     /opt/QEpot/SSSP_precision_pseudos/Na_ONCV_PBE-1.0.oncvpsp.upf
     MD5 check sum: 24a298df0a6742ae313db96548fdb2a4
     Pseudo is Norm-conserving, Zval =  9.0
     Generated using ONCVPSP code by D. R. Hamann
     Using radial grid of 1992 points,  4 beta functions with: 
                l(1) =   0
                l(2) =   0
                l(3) =   1
                l(4) =   1

     PseudoPot. # 3 for O  read from file:
     /opt/QEpot/SSSP_precision_pseudos/O.pbe-n-kjpaw_psl.0.1.UPF
     MD5 check sum: 0234752ac141de4415c5fc33072bef88
     Pseudo is Projector augmented-wave + core cor, Zval =  6.0
     Generated using "atomic" code by A. Dal Corso  v.5.0.99 svn rev. 10869
     Shape of augmentation charge: BESSEL
     Using radial grid of 1095 points,  4 beta functions with: 
                l(1) =   0
                l(2) =   0
                l(3) =   1
                l(4) =   1
     Q(r) pseudized with 0 coefficients 


     PseudoPot. # 4 for P  read from file:
     /opt/QEpot/SSSP_precision_pseudos/P.pbe-n-rrkjus_psl.1.0.0.UPF
     MD5 check sum: 8b930f418f0a4573dca56cd030ffe088
     Pseudo is Ultrasoft + core correction, Zval =  5.0
     Generated using "atomic" code by A. Dal Corso  v.5.1
     Using radial grid of 1147 points,  6 beta functions with: 
                l(1) =   0
                l(2) =   0
                l(3) =   1
                l(4) =   1
                l(5) =   2
                l(6) =   2
     Q(r) pseudized with 0 coefficients 


     atomic species   valence    mass     pseudopotential
        Fe            16.00    55.84500     Fe( 1.00)
        Na             9.00    22.98977     Na( 1.00)
        O              6.00    15.99940     O ( 1.00)
        P              5.00    30.97376     P ( 1.00)

     Starting magnetic structure 
     atomic species   magnetization
        Fe           0.312
        Na           0.000
        O            0.000
        P            0.000

     No symmetry found


                                    s                        frac. trans.

      isym =  1     identity                                     

 cryst.   s( 1) = (     1          0          0      )
                  (     0          1          0      )
                  (     0          0          1      )

 cart.    s( 1) = (  1.0000000  0.0000000  0.0000000 )
                  (  0.0000000  1.0000000  0.0000000 )
                  (  0.0000000  0.0000000  1.0000000 )


   Cartesian axes

     site n.     atom                  positions (alat units)
         1           Na  tau(   1) = (   0.9999980   0.0000000   0.0000000  )
         2           Fe  tau(   2) = (   0.2867560   0.4536400   0.4786255  )
         3           Fe  tau(   3) = (   0.2233660   0.1546875   0.2395598  )
         4           Fe  tau(   4) = (   0.7132500   0.1540816   0.0048102  )
         5           Fe  tau(   5) = (   0.7766390   0.4530341   0.2438758  )
         6           P   tau(   6) = (   0.1081020   0.4533264   0.2152890  )
         7           P   tau(   7) = (   0.3915960   0.1512302   0.4568913  )
         8           P   tau(   8) = (   0.8919040   0.1543952   0.2681490  )
         9           P   tau(   9) = (   0.6084100   0.4564914   0.0265434  )
        10           O   tau(  10) = (   0.1288530   0.4581414   0.3646833  )
        11           O   tau(  11) = (   0.3681240   0.1509008   0.1220851  )
        12           O   tau(  12) = (   0.8711530   0.1495802   0.1187509  )
        13           O   tau(  13) = (   0.6318820   0.4568208   0.3613514  )
        14           O   tau(  14) = (   0.4626860   0.4567546   0.0560042  )
        15           O   tau(  15) = (   0.0379730   0.1488862   0.3010722  )
        16           O   tau(  16) = (   0.5373200   0.1509670   0.4274314  )
        17           O   tau(  17) = (   0.9620320   0.4588348   0.1823634  )
        18           O   tau(  18) = (   0.1766340   0.5714603   0.1427615  )
        19           O   tau(  19) = (   0.3194030   0.0341896   0.3876748  )
        20           O   tau(  20) = (   0.8223270   0.2735499   0.3342724  )
        21           O   tau(  21) = (   0.6786820   0.3373197   0.0949322  )
        22           O   tau(  22) = (   0.8233720   0.0362614   0.3406741  )
        23           O   tau(  23) = (   0.6806030   0.5735326   0.0957613  )
        24           O   tau(  24) = (   0.1776790   0.3341717   0.1491632  )
        25           O   tau(  25) = (   0.3213240   0.2704019   0.3885039  )

   Crystallographic axes

     site n.     atom                  positions (cryst. coord.)
         1           Na  tau(   1) = (  0.9999980  0.0000000  0.0000000  )
         2           Fe  tau(   2) = (  0.2867560  0.7464640  0.9900560  )
         3           Fe  tau(   3) = (  0.2233660  0.2545380  0.4955390  )
         4           Fe  tau(   4) = (  0.7132500  0.2535410  0.0099500  )
         5           Fe  tau(   5) = (  0.7766390  0.7454670  0.5044670  )
         6           P   tau(   6) = (  0.1081020  0.7459480  0.4453340  )
         7           P   tau(   7) = (  0.3915960  0.2488490  0.9450980  )
         8           P   tau(   8) = (  0.8919040  0.2540570  0.5546770  )
         9           P   tau(   9) = (  0.6084100  0.7511560  0.0549060  )
        10           O   tau(  10) = (  0.1288530  0.7538710  0.7543620  )
        11           O   tau(  11) = (  0.3681240  0.2483070  0.2525380  )
        12           O   tau(  12) = (  0.8711530  0.2461340  0.2456410  )
        13           O   tau(  13) = (  0.6318820  0.7516980  0.7474700  )
        14           O   tau(  14) = (  0.4626860  0.7515890  0.1158470  )
        15           O   tau(  15) = (  0.0379730  0.2449920  0.6227800  )
        16           O   tau(  16) = (  0.5373200  0.2484160  0.8841590  )
        17           O   tau(  17) = (  0.9620320  0.7550120  0.3772260  )
        18           O   tau(  18) = (  0.1766340  0.9403370  0.2953080  )
        19           O   tau(  19) = (  0.3194030  0.0562590  0.8019210  )
        20           O   tau(  20) = (  0.8223270  0.4501260  0.6914560  )
        21           O   tau(  21) = (  0.6786820  0.5550590  0.1963710  )
        22           O   tau(  22) = (  0.8233720  0.0596680  0.7046980  )
        23           O   tau(  23) = (  0.6806030  0.9437470  0.1980860  )
        24           O   tau(  24) = (  0.1776790  0.5498790  0.3085500  )
        25           O   tau(  25) = (  0.3213240  0.4449460  0.8036360  )

     number of k points=   158  Marzari-Vanderbilt smearing, width (Ry)=  0.0073
                       cart. coord. in units 2pi/alat
        k(    1) = (   0.0000000   0.0000000   0.0000000), wk =   0.0031746
        k(    2) = (   0.0000000   0.0000000   0.2298378), wk =   0.0063492
        k(    3) = (   0.0000000   0.0000000   0.4596756), wk =   0.0063492
        k(    4) = (   0.0000000   0.0000000   0.6895134), wk =   0.0063492
        k(    5) = (   0.0000000   0.0000000   0.9193512), wk =   0.0063492
        k(    6) = (   0.0000000   0.2350712   0.0000000), wk =   0.0063492
        k(    7) = (   0.0000000   0.2350712   0.2298378), wk =   0.0063492
        k(    8) = (   0.0000000   0.2350712   0.4596756), wk =   0.0063492
        k(    9) = (   0.0000000   0.2350712   0.6895134), wk =   0.0063492
        k(   10) = (   0.0000000   0.2350712   0.9193512), wk =   0.0063492
        k(   11) = (   0.0000000   0.4701424   0.0000000), wk =   0.0063492
        k(   12) = (   0.0000000   0.4701424   0.2298378), wk =   0.0063492
        k(   13) = (   0.0000000   0.4701424   0.4596756), wk =   0.0063492
        k(   14) = (   0.0000000   0.4701424   0.6895134), wk =   0.0063492
        k(   15) = (   0.0000000   0.4701424   0.9193512), wk =   0.0063492
        k(   16) = (   0.0000000   0.7052137   0.0000000), wk =   0.0063492
        k(   17) = (   0.0000000   0.7052137   0.2298378), wk =   0.0063492
        k(   18) = (   0.0000000   0.7052137   0.4596756), wk =   0.0063492
        k(   19) = (   0.0000000   0.7052137   0.6895134), wk =   0.0063492
        k(   20) = (   0.0000000   0.7052137   0.9193512), wk =   0.0063492
        k(   21) = (   0.2000000   0.0000000   0.0000000), wk =   0.0063492
        k(   22) = (   0.2000000   0.0000000   0.2298378), wk =   0.0063492
        k(   23) = (   0.2000000   0.0000000   0.4596756), wk =   0.0063492
        k(   24) = (   0.2000000   0.0000000   0.6895134), wk =   0.0063492
        k(   25) = (   0.2000000   0.0000000   0.9193512), wk =   0.0063492
        k(   26) = (   0.2000000   0.2350712   0.0000000), wk =   0.0063492
        k(   27) = (   0.2000000   0.2350712   0.2298378), wk =   0.0063492
        k(   28) = (   0.2000000   0.2350712   0.4596756), wk =   0.0063492
        k(   29) = (   0.2000000   0.2350712   0.6895134), wk =   0.0063492
        k(   30) = (   0.2000000   0.2350712   0.9193512), wk =   0.0063492
        k(   31) = (   0.2000000   0.4701424   0.0000000), wk =   0.0063492
        k(   32) = (   0.2000000   0.4701424   0.2298378), wk =   0.0063492
        k(   33) = (   0.2000000   0.4701424   0.4596756), wk =   0.0063492
        k(   34) = (   0.2000000   0.4701424   0.6895134), wk =   0.0063492
        k(   35) = (   0.2000000   0.4701424   0.9193512), wk =   0.0063492
        k(   36) = (   0.2000000   0.7052137   0.0000000), wk =   0.0063492
        k(   37) = (   0.2000000   0.7052137   0.2298378), wk =   0.0063492
        k(   38) = (   0.2000000   0.7052137   0.4596756), wk =   0.0063492
        k(   39) = (   0.2000000   0.7052137   0.6895134), wk =   0.0063492
        k(   40) = (   0.2000000   0.7052137   0.9193512), wk =   0.0063492
        k(   41) = (   0.4000000   0.0000000   0.0000000), wk =   0.0063492
        k(   42) = (   0.4000000   0.0000000   0.2298378), wk =   0.0063492
        k(   43) = (   0.4000000   0.0000000   0.4596756), wk =   0.0063492
        k(   44) = (   0.4000000   0.0000000   0.6895134), wk =   0.0063492
        k(   45) = (   0.4000000   0.0000000   0.9193512), wk =   0.0063492
        k(   46) = (   0.4000000   0.2350712   0.0000000), wk =   0.0063492
        k(   47) = (   0.4000000   0.2350712   0.2298378), wk =   0.0063492
        k(   48) = (   0.4000000   0.2350712   0.4596756), wk =   0.0063492
        k(   49) = (   0.4000000   0.2350712   0.6895134), wk =   0.0063492
        k(   50) = (   0.4000000   0.2350712   0.9193512), wk =   0.0063492
        k(   51) = (   0.4000000   0.4701424   0.0000000), wk =   0.0063492
        k(   52) = (   0.4000000   0.4701424   0.2298378), wk =   0.0063492
        k(   53) = (   0.4000000   0.4701424   0.4596756), wk =   0.0063492
        k(   54) = (   0.4000000   0.4701424   0.6895134), wk =   0.0063492
        k(   55) = (   0.4000000   0.4701424   0.9193512), wk =   0.0063492
        k(   56) = (   0.4000000   0.7052137   0.0000000), wk =   0.0063492
        k(   57) = (   0.4000000   0.7052137   0.2298378), wk =   0.0063492
        k(   58) = (   0.4000000   0.7052137   0.4596756), wk =   0.0063492
        k(   59) = (   0.4000000   0.7052137   0.6895134), wk =   0.0063492
        k(   60) = (   0.4000000   0.7052137   0.9193512), wk =   0.0063492
        k(   61) = (   0.0000000  -0.2350712   0.2298378), wk =   0.0063492
        k(   62) = (   0.0000000  -0.2350712   0.4596756), wk =   0.0063492
        k(   63) = (   0.0000000  -0.2350712   0.6895134), wk =   0.0063492
        k(   64) = (   0.0000000  -0.2350712   0.9193512), wk =   0.0063492
        k(   65) = (   0.0000000  -0.4701424   0.2298378), wk =   0.0063492
        k(   66) = (   0.0000000  -0.4701424   0.4596756), wk =   0.0063492
        k(   67) = (   0.0000000  -0.4701424   0.6895134), wk =   0.0063492
        k(   68) = (   0.0000000  -0.4701424   0.9193512), wk =   0.0063492
        k(   69) = (   0.0000000  -0.7052137   0.2298378), wk =   0.0063492
        k(   70) = (   0.0000000  -0.7052137   0.4596756), wk =   0.0063492
        k(   71) = (   0.0000000  -0.7052137   0.6895134), wk =   0.0063492
        k(   72) = (   0.0000000  -0.7052137   0.9193512), wk =   0.0063492
        k(   73) = (  -0.2000000   0.0000000   0.2298378), wk =   0.0063492
        k(   74) = (  -0.2000000   0.0000000   0.4596756), wk =   0.0063492
        k(   75) = (  -0.2000000   0.0000000   0.6895134), wk =   0.0063492
        k(   76) = (  -0.2000000   0.0000000   0.9193512), wk =   0.0063492
        k(   77) = (  -0.2000000   0.2350712   0.0000000), wk =   0.0063492
        k(   78) = (  -0.2000000  -0.2350712   0.2298378), wk =   0.0063492
        k(   79) = (  -0.2000000   0.2350712  -0.2298378), wk =   0.0063492
        k(   80) = (   0.2000000  -0.2350712  -0.2298378), wk =   0.0063492
        k(   81) = (  -0.2000000  -0.2350712   0.4596756), wk =   0.0063492
        k(   82) = (  -0.2000000   0.2350712  -0.4596756), wk =   0.0063492
        k(   83) = (   0.2000000  -0.2350712  -0.4596756), wk =   0.0063492
        k(   84) = (  -0.2000000  -0.2350712   0.6895134), wk =   0.0063492
        k(   85) = (  -0.2000000   0.2350712  -0.6895134), wk =   0.0063492
        k(   86) = (   0.2000000  -0.2350712  -0.6895134), wk =   0.0063492
        k(   87) = (  -0.2000000  -0.2350712   0.9193512), wk =   0.0063492
        k(   88) = (  -0.2000000   0.2350712  -0.9193512), wk =   0.0063492
        k(   89) = (   0.2000000  -0.2350712  -0.9193512), wk =   0.0063492
        k(   90) = (  -0.2000000   0.4701424   0.0000000), wk =   0.0063492
        k(   91) = (  -0.2000000  -0.4701424   0.2298378), wk =   0.0063492
        k(   92) = (  -0.2000000   0.4701424  -0.2298378), wk =   0.0063492
        k(   93) = (   0.2000000  -0.4701424  -0.2298378), wk =   0.0063492
        k(   94) = (  -0.2000000  -0.4701424   0.4596756), wk =   0.0063492
        k(   95) = (  -0.2000000   0.4701424  -0.4596756), wk =   0.0063492
        k(   96) = (   0.2000000  -0.4701424  -0.4596756), wk =   0.0063492
        k(   97) = (  -0.2000000  -0.4701424   0.6895134), wk =   0.0063492
        k(   98) = (  -0.2000000   0.4701424  -0.6895134), wk =   0.0063492
        k(   99) = (   0.2000000  -0.4701424  -0.6895134), wk =   0.0063492
        k(  100) = (  -0.2000000  -0.4701424   0.9193512), wk =   0.0063492
        k(  101) = (  -0.2000000   0.4701424  -0.9193512), wk =   0.0063492
        k(  102) = (   0.2000000  -0.4701424  -0.9193512), wk =   0.0063492
        k(  103) = (  -0.2000000   0.7052137   0.0000000), wk =   0.0063492
        k(  104) = (  -0.2000000  -0.7052137   0.2298378), wk =   0.0063492
        k(  105) = (  -0.2000000   0.7052137  -0.2298378), wk =   0.0063492
        k(  106) = (   0.2000000  -0.7052137  -0.2298378), wk =   0.0063492
        k(  107) = (  -0.2000000  -0.7052137   0.4596756), wk =   0.0063492
        k(  108) = (  -0.2000000   0.7052137  -0.4596756), wk =   0.0063492
        k(  109) = (   0.2000000  -0.7052137  -0.4596756), wk =   0.0063492
        k(  110) = (  -0.2000000  -0.7052137   0.6895134), wk =   0.0063492
        k(  111) = (  -0.2000000   0.7052137  -0.6895134), wk =   0.0063492
        k(  112) = (   0.2000000  -0.7052137  -0.6895134), wk =   0.0063492
        k(  113) = (  -0.2000000  -0.7052137   0.9193512), wk =   0.0063492
        k(  114) = (  -0.2000000   0.7052137  -0.9193512), wk =   0.0063492
        k(  115) = (   0.2000000  -0.7052137  -0.9193512), wk =   0.0063492
        k(  116) = (  -0.4000000   0.0000000   0.2298378), wk =   0.0063492
        k(  117) = (  -0.4000000   0.0000000   0.4596756), wk =   0.0063492
        k(  118) = (  -0.4000000   0.0000000   0.6895134), wk =   0.0063492
        k(  119) = (  -0.4000000   0.0000000   0.9193512), wk =   0.0063492
        k(  120) = (  -0.4000000   0.2350712   0.0000000), wk =   0.0063492
        k(  121) = (  -0.4000000  -0.2350712   0.2298378), wk =   0.0063492
        k(  122) = (  -0.4000000   0.2350712  -0.2298378), wk =   0.0063492
        k(  123) = (   0.4000000  -0.2350712  -0.2298378), wk =   0.0063492
        k(  124) = (  -0.4000000  -0.2350712   0.4596756), wk =   0.0063492
        k(  125) = (  -0.4000000   0.2350712  -0.4596756), wk =   0.0063492
        k(  126) = (   0.4000000  -0.2350712  -0.4596756), wk =   0.0063492
        k(  127) = (  -0.4000000  -0.2350712   0.6895134), wk =   0.0063492
        k(  128) = (  -0.4000000   0.2350712  -0.6895134), wk =   0.0063492
        k(  129) = (   0.4000000  -0.2350712  -0.6895134), wk =   0.0063492
        k(  130) = (  -0.4000000  -0.2350712   0.9193512), wk =   0.0063492
        k(  131) = (  -0.4000000   0.2350712  -0.9193512), wk =   0.0063492
        k(  132) = (   0.4000000  -0.2350712  -0.9193512), wk =   0.0063492
        k(  133) = (  -0.4000000   0.4701424   0.0000000), wk =   0.0063492
        k(  134) = (  -0.4000000  -0.4701424   0.2298378), wk =   0.0063492
        k(  135) = (  -0.4000000   0.4701424  -0.2298378), wk =   0.0063492
        k(  136) = (   0.4000000  -0.4701424  -0.2298378), wk =   0.0063492
        k(  137) = (  -0.4000000  -0.4701424   0.4596756), wk =   0.0063492
        k(  138) = (  -0.4000000   0.4701424  -0.4596756), wk =   0.0063492
        k(  139) = (   0.4000000  -0.4701424  -0.4596756), wk =   0.0063492
        k(  140) = (  -0.4000000  -0.4701424   0.6895134), wk =   0.0063492
        k(  141) = (  -0.4000000   0.4701424  -0.6895134), wk =   0.0063492
        k(  142) = (   0.4000000  -0.4701424  -0.6895134), wk =   0.0063492
        k(  143) = (  -0.4000000  -0.4701424   0.9193512), wk =   0.0063492
        k(  144) = (  -0.4000000   0.4701424  -0.9193512), wk =   0.0063492
        k(  145) = (   0.4000000  -0.4701424  -0.9193512), wk =   0.0063492
        k(  146) = (  -0.4000000   0.7052137   0.0000000), wk =   0.0063492
        k(  147) = (  -0.4000000  -0.7052137   0.2298378), wk =   0.0063492
        k(  148) = (  -0.4000000   0.7052137  -0.2298378), wk =   0.0063492
        k(  149) = (   0.4000000  -0.7052137  -0.2298378), wk =   0.0063492
        k(  150) = (  -0.4000000  -0.7052137   0.4596756), wk =   0.0063492
        k(  151) = (  -0.4000000   0.7052137  -0.4596756), wk =   0.0063492
        k(  152) = (   0.4000000  -0.7052137  -0.4596756), wk =   0.0063492
        k(  153) = (  -0.4000000  -0.7052137   0.6895134), wk =   0.0063492
        k(  154) = (  -0.4000000   0.7052137  -0.6895134), wk =   0.0063492
        k(  155) = (   0.4000000  -0.7052137  -0.6895134), wk =   0.0063492
        k(  156) = (  -0.4000000  -0.7052137   0.9193512), wk =   0.0063492
        k(  157) = (  -0.4000000   0.7052137  -0.9193512), wk =   0.0063492
        k(  158) = (   0.4000000  -0.7052137  -0.9193512), wk =   0.0063492

                       cryst. coord.
        k(    1) = (   0.0000000   0.0000000   0.0000000), wk =   0.0031746
        k(    2) = (   0.0000000   0.0000000   0.1111111), wk =   0.0063492
        k(    3) = (   0.0000000   0.0000000   0.2222222), wk =   0.0063492
        k(    4) = (   0.0000000   0.0000000   0.3333333), wk =   0.0063492
        k(    5) = (   0.0000000   0.0000000   0.4444444), wk =   0.0063492
        k(    6) = (   0.0000000   0.1428571   0.0000000), wk =   0.0063492
        k(    7) = (   0.0000000   0.1428571   0.1111111), wk =   0.0063492
        k(    8) = (   0.0000000   0.1428571   0.2222222), wk =   0.0063492
        k(    9) = (   0.0000000   0.1428571   0.3333333), wk =   0.0063492
        k(   10) = (   0.0000000   0.1428571   0.4444444), wk =   0.0063492
        k(   11) = (   0.0000000   0.2857143   0.0000000), wk =   0.0063492
        k(   12) = (   0.0000000   0.2857143   0.1111111), wk =   0.0063492
        k(   13) = (   0.0000000   0.2857143   0.2222222), wk =   0.0063492
        k(   14) = (   0.0000000   0.2857143   0.3333333), wk =   0.0063492
        k(   15) = (   0.0000000   0.2857143   0.4444444), wk =   0.0063492
        k(   16) = (   0.0000000   0.4285714   0.0000000), wk =   0.0063492
        k(   17) = (   0.0000000   0.4285714   0.1111111), wk =   0.0063492
        k(   18) = (   0.0000000   0.4285714   0.2222222), wk =   0.0063492
        k(   19) = (   0.0000000   0.4285714   0.3333333), wk =   0.0063492
        k(   20) = (   0.0000000   0.4285714   0.4444444), wk =   0.0063492
        k(   21) = (   0.2000000   0.0000000   0.0000000), wk =   0.0063492
        k(   22) = (   0.2000000   0.0000000   0.1111111), wk =   0.0063492
        k(   23) = (   0.2000000   0.0000000   0.2222222), wk =   0.0063492
        k(   24) = (   0.2000000   0.0000000   0.3333333), wk =   0.0063492
        k(   25) = (   0.2000000   0.0000000   0.4444444), wk =   0.0063492
        k(   26) = (   0.2000000   0.1428571   0.0000000), wk =   0.0063492
        k(   27) = (   0.2000000   0.1428571   0.1111111), wk =   0.0063492
        k(   28) = (   0.2000000   0.1428571   0.2222222), wk =   0.0063492
        k(   29) = (   0.2000000   0.1428571   0.3333333), wk =   0.0063492
        k(   30) = (   0.2000000   0.1428571   0.4444444), wk =   0.0063492
        k(   31) = (   0.2000000   0.2857143   0.0000000), wk =   0.0063492
        k(   32) = (   0.2000000   0.2857143   0.1111111), wk =   0.0063492
        k(   33) = (   0.2000000   0.2857143   0.2222222), wk =   0.0063492
        k(   34) = (   0.2000000   0.2857143   0.3333333), wk =   0.0063492
        k(   35) = (   0.2000000   0.2857143   0.4444444), wk =   0.0063492
        k(   36) = (   0.2000000   0.4285714   0.0000000), wk =   0.0063492
        k(   37) = (   0.2000000   0.4285714   0.1111111), wk =   0.0063492
        k(   38) = (   0.2000000   0.4285714   0.2222222), wk =   0.0063492
        k(   39) = (   0.2000000   0.4285714   0.3333333), wk =   0.0063492
        k(   40) = (   0.2000000   0.4285714   0.4444444), wk =   0.0063492
        k(   41) = (   0.4000000   0.0000000   0.0000000), wk =   0.0063492
        k(   42) = (   0.4000000   0.0000000   0.1111111), wk =   0.0063492
        k(   43) = (   0.4000000   0.0000000   0.2222222), wk =   0.0063492
        k(   44) = (   0.4000000   0.0000000   0.3333333), wk =   0.0063492
        k(   45) = (   0.4000000   0.0000000   0.4444444), wk =   0.0063492
        k(   46) = (   0.4000000   0.1428571   0.0000000), wk =   0.0063492
        k(   47) = (   0.4000000   0.1428571   0.1111111), wk =   0.0063492
        k(   48) = (   0.4000000   0.1428571   0.2222222), wk =   0.0063492
        k(   49) = (   0.4000000   0.1428571   0.3333333), wk =   0.0063492
        k(   50) = (   0.4000000   0.1428571   0.4444444), wk =   0.0063492
        k(   51) = (   0.4000000   0.2857143   0.0000000), wk =   0.0063492
        k(   52) = (   0.4000000   0.2857143   0.1111111), wk =   0.0063492
        k(   53) = (   0.4000000   0.2857143   0.2222222), wk =   0.0063492
        k(   54) = (   0.4000000   0.2857143   0.3333333), wk =   0.0063492
        k(   55) = (   0.4000000   0.2857143   0.4444444), wk =   0.0063492
        k(   56) = (   0.4000000   0.4285714   0.0000000), wk =   0.0063492
        k(   57) = (   0.4000000   0.4285714   0.1111111), wk =   0.0063492
        k(   58) = (   0.4000000   0.4285714   0.2222222), wk =   0.0063492
        k(   59) = (   0.4000000   0.4285714   0.3333333), wk =   0.0063492
        k(   60) = (   0.4000000   0.4285714   0.4444444), wk =   0.0063492
        k(   61) = (   0.0000000  -0.1428571   0.1111111), wk =   0.0063492
        k(   62) = (   0.0000000  -0.1428571   0.2222222), wk =   0.0063492
        k(   63) = (   0.0000000  -0.1428571   0.3333333), wk =   0.0063492
        k(   64) = (   0.0000000  -0.1428571   0.4444444), wk =   0.0063492
        k(   65) = (   0.0000000  -0.2857143   0.1111111), wk =   0.0063492
        k(   66) = (   0.0000000  -0.2857143   0.2222222), wk =   0.0063492
        k(   67) = (   0.0000000  -0.2857143   0.3333333), wk =   0.0063492
        k(   68) = (   0.0000000  -0.2857143   0.4444444), wk =   0.0063492
        k(   69) = (   0.0000000  -0.4285714   0.1111111), wk =   0.0063492
        k(   70) = (   0.0000000  -0.4285714   0.2222222), wk =   0.0063492
        k(   71) = (   0.0000000  -0.4285714   0.3333333), wk =   0.0063492
        k(   72) = (   0.0000000  -0.4285714   0.4444444), wk =   0.0063492
        k(   73) = (  -0.2000000   0.0000000   0.1111111), wk =   0.0063492
        k(   74) = (  -0.2000000   0.0000000   0.2222222), wk =   0.0063492
        k(   75) = (  -0.2000000   0.0000000   0.3333333), wk =   0.0063492
        k(   76) = (  -0.2000000   0.0000000   0.4444444), wk =   0.0063492
        k(   77) = (  -0.2000000   0.1428571   0.0000000), wk =   0.0063492
        k(   78) = (  -0.2000000  -0.1428571   0.1111111), wk =   0.0063492
        k(   79) = (  -0.2000000   0.1428571  -0.1111111), wk =   0.0063492
        k(   80) = (   0.2000000  -0.1428571  -0.1111111), wk =   0.0063492
        k(   81) = (  -0.2000000  -0.1428571   0.2222222), wk =   0.0063492
        k(   82) = (  -0.2000000   0.1428571  -0.2222222), wk =   0.0063492
        k(   83) = (   0.2000000  -0.1428571  -0.2222222), wk =   0.0063492
        k(   84) = (  -0.2000000  -0.1428571   0.3333333), wk =   0.0063492
        k(   85) = (  -0.2000000   0.1428571  -0.3333333), wk =   0.0063492
        k(   86) = (   0.2000000  -0.1428571  -0.3333333), wk =   0.0063492
        k(   87) = (  -0.2000000  -0.1428571   0.4444444), wk =   0.0063492
        k(   88) = (  -0.2000000   0.1428571  -0.4444444), wk =   0.0063492
        k(   89) = (   0.2000000  -0.1428571  -0.4444444), wk =   0.0063492
        k(   90) = (  -0.2000000   0.2857143   0.0000000), wk =   0.0063492
        k(   91) = (  -0.2000000  -0.2857143   0.1111111), wk =   0.0063492
        k(   92) = (  -0.2000000   0.2857143  -0.1111111), wk =   0.0063492
        k(   93) = (   0.2000000  -0.2857143  -0.1111111), wk =   0.0063492
        k(   94) = (  -0.2000000  -0.2857143   0.2222222), wk =   0.0063492
        k(   95) = (  -0.2000000   0.2857143  -0.2222222), wk =   0.0063492
        k(   96) = (   0.2000000  -0.2857143  -0.2222222), wk =   0.0063492
        k(   97) = (  -0.2000000  -0.2857143   0.3333333), wk =   0.0063492
        k(   98) = (  -0.2000000   0.2857143  -0.3333333), wk =   0.0063492
        k(   99) = (   0.2000000  -0.2857143  -0.3333333), wk =   0.0063492
        k(  100) = (  -0.2000000  -0.2857143   0.4444444), wk =   0.0063492
        k(  101) = (  -0.2000000   0.2857143  -0.4444444), wk =   0.0063492
        k(  102) = (   0.2000000  -0.2857143  -0.4444444), wk =   0.0063492
        k(  103) = (  -0.2000000   0.4285714   0.0000000), wk =   0.0063492
        k(  104) = (  -0.2000000  -0.4285714   0.1111111), wk =   0.0063492
        k(  105) = (  -0.2000000   0.4285714  -0.1111111), wk =   0.0063492
        k(  106) = (   0.2000000  -0.4285714  -0.1111111), wk =   0.0063492
        k(  107) = (  -0.2000000  -0.4285714   0.2222222), wk =   0.0063492
        k(  108) = (  -0.2000000   0.4285714  -0.2222222), wk =   0.0063492
        k(  109) = (   0.2000000  -0.4285714  -0.2222222), wk =   0.0063492
        k(  110) = (  -0.2000000  -0.4285714   0.3333333), wk =   0.0063492
        k(  111) = (  -0.2000000   0.4285714  -0.3333333), wk =   0.0063492
        k(  112) = (   0.2000000  -0.4285714  -0.3333333), wk =   0.0063492
        k(  113) = (  -0.2000000  -0.4285714   0.4444444), wk =   0.0063492
        k(  114) = (  -0.2000000   0.4285714  -0.4444444), wk =   0.0063492
        k(  115) = (   0.2000000  -0.4285714  -0.4444444), wk =   0.0063492
        k(  116) = (  -0.4000000   0.0000000   0.1111111), wk =   0.0063492
        k(  117) = (  -0.4000000   0.0000000   0.2222222), wk =   0.0063492
        k(  118) = (  -0.4000000   0.0000000   0.3333333), wk =   0.0063492
        k(  119) = (  -0.4000000   0.0000000   0.4444444), wk =   0.0063492
        k(  120) = (  -0.4000000   0.1428571   0.0000000), wk =   0.0063492
        k(  121) = (  -0.4000000  -0.1428571   0.1111111), wk =   0.0063492
        k(  122) = (  -0.4000000   0.1428571  -0.1111111), wk =   0.0063492
        k(  123) = (   0.4000000  -0.1428571  -0.1111111), wk =   0.0063492
        k(  124) = (  -0.4000000  -0.1428571   0.2222222), wk =   0.0063492
        k(  125) = (  -0.4000000   0.1428571  -0.2222222), wk =   0.0063492
        k(  126) = (   0.4000000  -0.1428571  -0.2222222), wk =   0.0063492
        k(  127) = (  -0.4000000  -0.1428571   0.3333333), wk =   0.0063492
        k(  128) = (  -0.4000000   0.1428571  -0.3333333), wk =   0.0063492
        k(  129) = (   0.4000000  -0.1428571  -0.3333333), wk =   0.0063492
        k(  130) = (  -0.4000000  -0.1428571   0.4444444), wk =   0.0063492
        k(  131) = (  -0.4000000   0.1428571  -0.4444444), wk =   0.0063492
        k(  132) = (   0.4000000  -0.1428571  -0.4444444), wk =   0.0063492
        k(  133) = (  -0.4000000   0.2857143   0.0000000), wk =   0.0063492
        k(  134) = (  -0.4000000  -0.2857143   0.1111111), wk =   0.0063492
        k(  135) = (  -0.4000000   0.2857143  -0.1111111), wk =   0.0063492
        k(  136) = (   0.4000000  -0.2857143  -0.1111111), wk =   0.0063492
        k(  137) = (  -0.4000000  -0.2857143   0.2222222), wk =   0.0063492
        k(  138) = (  -0.4000000   0.2857143  -0.2222222), wk =   0.0063492
        k(  139) = (   0.4000000  -0.2857143  -0.2222222), wk =   0.0063492
        k(  140) = (  -0.4000000  -0.2857143   0.3333333), wk =   0.0063492
        k(  141) = (  -0.4000000   0.2857143  -0.3333333), wk =   0.0063492
        k(  142) = (   0.4000000  -0.2857143  -0.3333333), wk =   0.0063492
        k(  143) = (  -0.4000000  -0.2857143   0.4444444), wk =   0.0063492
        k(  144) = (  -0.4000000   0.2857143  -0.4444444), wk =   0.0063492
        k(  145) = (   0.4000000  -0.2857143  -0.4444444), wk =   0.0063492
        k(  146) = (  -0.4000000   0.4285714   0.0000000), wk =   0.0063492
        k(  147) = (  -0.4000000  -0.4285714   0.1111111), wk =   0.0063492
        k(  148) = (  -0.4000000   0.4285714  -0.1111111), wk =   0.0063492
        k(  149) = (   0.4000000  -0.4285714  -0.1111111), wk =   0.0063492
        k(  150) = (  -0.4000000  -0.4285714   0.2222222), wk =   0.0063492
        k(  151) = (  -0.4000000   0.4285714  -0.2222222), wk =   0.0063492
        k(  152) = (   0.4000000  -0.4285714  -0.2222222), wk =   0.0063492
        k(  153) = (  -0.4000000  -0.4285714   0.3333333), wk =   0.0063492
        k(  154) = (  -0.4000000   0.4285714  -0.3333333), wk =   0.0063492
        k(  155) = (   0.4000000  -0.4285714  -0.3333333), wk =   0.0063492
        k(  156) = (  -0.4000000  -0.4285714   0.4444444), wk =   0.0063492
        k(  157) = (  -0.4000000   0.4285714  -0.4444444), wk =   0.0063492
        k(  158) = (   0.4000000  -0.4285714  -0.4444444), wk =   0.0063492

     Dense  grid:  1273469 G-vectors     FFT dimensions: ( 216, 125, 100)

     Smooth grid:   287059 G-vectors     FFT dimensions: ( 125,  75,  60)

     Dynamical RAM for                 wfc:       5.20 MB

     Dynamical RAM for     wfc (w. buffer):    1648.20 MB

     Dynamical RAM for           str. fact:       6.48 MB

     Dynamical RAM for           local pot:       0.00 MB

     Dynamical RAM for          nlocal pot:      12.77 MB

     Dynamical RAM for                qrad:      10.54 MB

     Dynamical RAM for          rho,v,vnew:      20.84 MB

     Dynamical RAM for               rhoin:       6.95 MB

     Dynamical RAM for            rho*nmix:      51.82 MB

     Dynamical RAM for           G-vectors:       6.25 MB

     Dynamical RAM for          h,s,v(r/c):       2.38 MB

     Dynamical RAM for          <psi|beta>:       0.49 MB

     Dynamical RAM for                 psi:      10.40 MB

     Dynamical RAM for                hpsi:      10.40 MB

     Dynamical RAM for                spsi:      10.40 MB

     Dynamical RAM for      wfcinit/wfcrot:      12.93 MB

     Dynamical RAM for           addusdens:     328.72 MB

     Dynamical RAM for          addusforce:     377.42 MB

     Dynamical RAM for         addusstress:     327.91 MB

     Estimated static dynamical RAM per process >       1.74 GB

     Estimated max dynamical RAM per process >       2.11 GB

     Estimated total dynamical RAM >      25.32 GB

     Check: negative core charge=   -0.000003
     Generating pointlists ...
     new r_m :   0.0768 (alat units)  1.4850 (a.u.) for type    1
     new r_m :   0.0949 (alat units)  1.8345 (a.u.) for type    2
     new r_m :   0.0613 (alat units)  1.1859 (a.u.) for type    3
     new r_m :   0.0613 (alat units)  1.1859 (a.u.) for type    4

     Initial potential from superposition of free atoms

     starting charge  188.99132, renormalised to  189.00000
     Starting wfcs are  137 randomized atomic wfcs
     Checking if some PAW data can be deallocated... 
       PAW data deallocated on   10 nodes for type:  1
       PAW data deallocated on    4 nodes for type:  3

     total cpu time spent up to now is      308.6 secs

     Self-consistent Calculation

     iteration #  1     ecut=   100.00 Ry     beta= 0.40
     Davidson diagonalization with overlap
     ethr =  1.00E-02,  avg # of iterations =  3.1

     negative rho (up, down):  0.000E+00 9.001E-05

     total cpu time spent up to now is     1335.8 secs

     total energy              =   -2124.10317879 Ry
     estimated scf accuracy    <       6.65178512 Ry

     total magnetization       =    19.00 Bohr mag/cell
     absolute magnetization    =    19.00 Bohr mag/cell

     iteration #  2     ecut=   100.00 Ry     beta= 0.40
     Davidson diagonalization with overlap
     ethr =  3.52E-03,  avg # of iterations =  2.0

     negative rho (up, down):  0.000E+00 5.116E-05

     total cpu time spent up to now is     2215.3 secs

     total energy              =   -2123.42769434 Ry
     estimated scf accuracy    <      12.49537720 Ry

     total magnetization       =    12.18 Bohr mag/cell
     absolute magnetization    =    12.23 Bohr mag/cell

     iteration #  3     ecut=   100.00 Ry     beta= 0.40
     Davidson diagonalization with overlap
     ethr =  3.52E-03,  avg # of iterations =  2.0

     negative rho (up, down):  0.000E+00 1.814E-04

     total cpu time spent up to now is     2970.3 secs

     total energy              =   -2126.04452506 Ry
     estimated scf accuracy    <       2.13483249 Ry

     total magnetization       =    19.00 Bohr mag/cell
     absolute magnetization    =    19.00 Bohr mag/cell

     iteration #  4     ecut=   100.00 Ry     beta= 0.40
     Davidson diagonalization with overlap
     ethr =  1.13E-03,  avg # of iterations =  2.1

     negative rho (up, down):  0.000E+00 2.013E-04

     total cpu time spent up to now is     3716.3 secs

     total energy              =   -2125.79359343 Ry
     estimated scf accuracy    <      10.76265501 Ry

     total magnetization       =    14.77 Bohr mag/cell
     absolute magnetization    =    14.95 Bohr mag/cell

     iteration #  5     ecut=   100.00 Ry     beta= 0.40
     Davidson diagonalization with overlap
     ethr =  1.13E-03,  avg # of iterations =  1.0

     negative rho (up, down):  0.000E+00 2.455E-04

     total cpu time spent up to now is     4337.5 secs

     total energy              =   -2126.12864018 Ry
     estimated scf accuracy    <       1.28401523 Ry

     total magnetization       =    19.00 Bohr mag/cell
     absolute magnetization    =    19.00 Bohr mag/cell

     iteration #  6     ecut=   100.00 Ry     beta= 0.40
     Davidson diagonalization with overlap
     ethr =  6.79E-04,  avg # of iterations =  1.3

     negative rho (up, down):  0.000E+00 2.810E-04

     total cpu time spent up to now is     4979.7 secs

     total energy              =   -2126.13524922 Ry
     estimated scf accuracy    <       1.02450378 Ry

     total magnetization       =    19.00 Bohr mag/cell
     absolute magnetization    =    19.01 Bohr mag/cell

     iteration #  7     ecut=   100.00 Ry     beta= 0.40
     Davidson diagonalization with overlap
     ethr =  5.42E-04,  avg # of iterations =  1.1

     negative rho (up, down):  0.000E+00 5.464E-04

     total cpu time spent up to now is     5603.6 secs

     total energy              =   -2126.10668247 Ry
     estimated scf accuracy    <       0.55368402 Ry

     total magnetization       =    19.00 Bohr mag/cell
     absolute magnetization    =    19.00 Bohr mag/cell

     iteration #  8     ecut=   100.00 Ry     beta= 0.40
     Davidson diagonalization with overlap
     ethr =  2.93E-04,  avg # of iterations =  2.2

     negative rho (up, down):  0.000E+00 7.704E-04

     total cpu time spent up to now is     6328.2 secs

     total energy              =   -2126.14148254 Ry
     estimated scf accuracy    <       0.11238584 Ry

     total magnetization       =    19.00 Bohr mag/cell
     absolute magnetization    =    19.01 Bohr mag/cell

     iteration #  9     ecut=   100.00 Ry     beta= 0.40
     Davidson diagonalization with overlap
     c_bands:  1 eigenvalues not converged
     c_bands:  1 eigenvalues not converged
     c_bands:  2 eigenvalues not converged
     c_bands:  1 eigenvalues not converged
     c_bands:  1 eigenvalues not converged
     c_bands:  1 eigenvalues not converged
     c_bands:  1 eigenvalues not converged
     c_bands:  1 eigenvalues not converged
     c_bands:  1 eigenvalues not converged
     ethr =  5.95E-05,  avg # of iterations = 13.7

     negative rho (up, down):  0.000E+00 8.591E-04

     total cpu time spent up to now is     7563.3 secs

     total energy              =   -2126.14524262 Ry
     estimated scf accuracy    <       0.21388737 Ry

     total magnetization       =    19.00 Bohr mag/cell
     absolute magnetization    =    19.02 Bohr mag/cell

     iteration # 10     ecut=   100.00 Ry     beta= 0.40
     Davidson diagonalization with overlap
     ethr =  5.95E-05,  avg # of iterations =  1.0

     negative rho (up, down):  0.000E+00 8.743E-04

     total cpu time spent up to now is     8185.0 secs

     total energy              =   -2126.14959185 Ry
     estimated scf accuracy    <       0.29341353 Ry

     total magnetization       =    19.00 Bohr mag/cell
     absolute magnetization    =    19.03 Bohr mag/cell

     iteration # 11     ecut=   100.00 Ry     beta= 0.40
     Davidson diagonalization with overlap
     ethr =  5.95E-05,  avg # of iterations =  1.0

     negative rho (up, down):  0.000E+00 8.849E-04

     total cpu time spent up to now is     8804.5 secs

     total energy              =   -2126.15350884 Ry
     estimated scf accuracy    <       0.06289859 Ry

     total magnetization       =    19.00 Bohr mag/cell
     absolute magnetization    =    19.03 Bohr mag/cell

     iteration # 12     ecut=   100.00 Ry     beta= 0.40
     Davidson diagonalization with overlap
     ethr =  3.33E-05,  avg # of iterations =  1.0

     negative rho (up, down):  0.000E+00 9.421E-04

     total cpu time spent up to now is     9425.3 secs

     total energy              =   -2126.15635639 Ry
     estimated scf accuracy    <       0.02381308 Ry

     total magnetization       =    19.00 Bohr mag/cell
     absolute magnetization    =    19.03 Bohr mag/cell

     iteration # 13     ecut=   100.00 Ry     beta= 0.40
     Davidson diagonalization with overlap
     c_bands:  1 eigenvalues not converged
     ethr =  1.26E-05,  avg # of iterations =  1.5

     negative rho (up, down):  0.000E+00 9.483E-04

     total cpu time spent up to now is    10066.8 secs

     total energy              =   -2126.15695931 Ry
     estimated scf accuracy    <       0.01046973 Ry

     total magnetization       =    19.00 Bohr mag/cell
     absolute magnetization    =    19.04 Bohr mag/cell

     iteration # 14     ecut=   100.00 Ry     beta= 0.40
     Davidson diagonalization with overlap
     c_bands:  1 eigenvalues not converged
     c_bands:  1 eigenvalues not converged
     c_bands:  3 eigenvalues not converged
     c_bands:  1 eigenvalues not converged
     c_bands:  1 eigenvalues not converged
     c_bands:  1 eigenvalues not converged
     c_bands:  1 eigenvalues not converged
     c_bands:  1 eigenvalues not converged
     ethr =  5.54E-06,  avg # of iterations =  3.8

     negative rho (up, down):  0.000E+00 9.417E-04

     total cpu time spent up to now is    10801.8 secs

     total energy              =   -2126.15728382 Ry
     estimated scf accuracy    <       0.00123144 Ry

     total magnetization       =    19.00 Bohr mag/cell
     absolute magnetization    =    19.04 Bohr mag/cell

     iteration # 15     ecut=   100.00 Ry     beta= 0.40
     Davidson diagonalization with overlap
     c_bands:  1 eigenvalues not converged
     c_bands:  1 eigenvalues not converged
     c_bands:  1 eigenvalues not converged
     c_bands:  1 eigenvalues not converged
     c_bands:  1 eigenvalues not converged
     c_bands:  1 eigenvalues not converged
     c_bands:  2 eigenvalues not converged
     c_bands:  1 eigenvalues not converged
     c_bands:  1 eigenvalues not converged
     c_bands:  1 eigenvalues not converged
     c_bands:  1 eigenvalues not converged
     c_bands:  1 eigenvalues not converged
     c_bands:  1 eigenvalues not converged
     c_bands:  1 eigenvalues not converged
     c_bands:  1 eigenvalues not converged
     c_bands:  1 eigenvalues not converged
     c_bands:  1 eigenvalues not converged
     c_bands:  1 eigenvalues not converged
     c_bands:  1 eigenvalues not converged
     c_bands:  1 eigenvalues not converged
     ethr =  6.52E-07,  avg # of iterations =  9.8

     negative rho (up, down):  0.000E+00 9.343E-04

     total cpu time spent up to now is    11984.4 secs

     total energy              =   -2126.15765744 Ry
     estimated scf accuracy    <       0.00022653 Ry

     total magnetization       =    19.00 Bohr mag/cell
     absolute magnetization    =    19.04 Bohr mag/cell

     iteration # 16     ecut=   100.00 Ry     beta= 0.40
     Davidson diagonalization with overlap
     c_bands:  1 eigenvalues not converged
     ethr =  1.20E-07,  avg # of iterations =  2.2

     negative rho (up, down):  0.000E+00 9.286E-04

     total cpu time spent up to now is    12705.9 secs

     total energy              =   -2126.15769027 Ry
     estimated scf accuracy    <       0.00005992 Ry

     total magnetization       =    19.00 Bohr mag/cell
     absolute magnetization    =    19.04 Bohr mag/cell

     iteration # 17     ecut=   100.00 Ry     beta= 0.40
     Davidson diagonalization with overlap
     ethr =  3.17E-08,  avg # of iterations =  2.3

     negative rho (up, down):  0.000E+00 9.225E-04

     total cpu time spent up to now is    13442.6 secs

     total energy              =   -2126.15769899 Ry
     estimated scf accuracy    <       0.00004567 Ry

     total magnetization       =    19.00 Bohr mag/cell
     absolute magnetization    =    19.04 Bohr mag/cell

     iteration # 18     ecut=   100.00 Ry     beta= 0.40
     Davidson diagonalization with overlap
     ethr =  2.42E-08,  avg # of iterations =  2.0

     negative rho (up, down):  0.000E+00 9.222E-04

     total cpu time spent up to now is    14154.7 secs

     total energy              =   -2126.15770385 Ry
     estimated scf accuracy    <       0.00001319 Ry

     total magnetization       =    19.00 Bohr mag/cell
     absolute magnetization    =    19.04 Bohr mag/cell

     iteration # 19     ecut=   100.00 Ry     beta= 0.40
     Davidson diagonalization with overlap
     ethr =  6.98E-09,  avg # of iterations =  3.0

     negative rho (up, down):  0.000E+00 9.224E-04

     total cpu time spent up to now is    14914.0 secs

     total energy              =   -2126.15770592 Ry
     estimated scf accuracy    <       0.00000403 Ry

     total magnetization       =    19.00 Bohr mag/cell
     absolute magnetization    =    19.04 Bohr mag/cell

     iteration # 20     ecut=   100.00 Ry     beta= 0.40
     Davidson diagonalization with overlap
     ethr =  2.13E-09,  avg # of iterations =  2.8

     negative rho (up, down):  0.000E+00 9.230E-04

     total cpu time spent up to now is    15676.8 secs

     total energy              =   -2126.15770653 Ry
     estimated scf accuracy    <       0.00000080 Ry

     total magnetization       =    19.00 Bohr mag/cell
     absolute magnetization    =    19.04 Bohr mag/cell

     iteration # 21     ecut=   100.00 Ry     beta= 0.40
     Davidson diagonalization with overlap
     ethr =  4.25E-10,  avg # of iterations =  3.5

     negative rho (up, down):  0.000E+00 9.236E-04

     total cpu time spent up to now is    16531.9 secs

     total energy              =   -2126.15770681 Ry
     estimated scf accuracy    <       0.00000048 Ry

     total magnetization       =    19.00 Bohr mag/cell
     absolute magnetization    =    19.04 Bohr mag/cell

     iteration # 22     ecut=   100.00 Ry     beta= 0.40
     Davidson diagonalization with overlap
     ethr =  2.54E-10,  avg # of iterations =  1.3

     negative rho (up, down):  0.000E+00 9.239E-04

     total cpu time spent up to now is    17177.0 secs

     total energy              =   -2126.15770686 Ry
     estimated scf accuracy    <       0.00000010 Ry

     total magnetization       =    19.00 Bohr mag/cell
     absolute magnetization    =    19.04 Bohr mag/cell

     iteration # 23     ecut=   100.00 Ry     beta= 0.40
     Davidson diagonalization with overlap
     ethr =  5.25E-11,  avg # of iterations =  3.2

     negative rho (up, down):  0.000E+00 9.241E-04

     total cpu time spent up to now is    18026.0 secs

     total energy              =   -2126.15770689 Ry
     estimated scf accuracy    <       0.00000014 Ry

     total magnetization       =    19.00 Bohr mag/cell
     absolute magnetization    =    19.04 Bohr mag/cell

     iteration # 24     ecut=   100.00 Ry     beta= 0.40
     Davidson diagonalization with overlap
     ethr =  5.25E-11,  avg # of iterations =  1.0

     negative rho (up, down):  0.000E+00 9.242E-04

     total cpu time spent up to now is    18644.4 secs

     total energy              =   -2126.15770690 Ry
     estimated scf accuracy    <       0.00000007 Ry

     total magnetization       =    19.00 Bohr mag/cell
     absolute magnetization    =    19.04 Bohr mag/cell

     iteration # 25     ecut=   100.00 Ry     beta= 0.40
     Davidson diagonalization with overlap
     ethr =  3.67E-11,  avg # of iterations =  1.0

     negative rho (up, down):  0.000E+00 9.241E-04

     total cpu time spent up to now is    19264.2 secs

     total energy              =   -2126.15770691 Ry
     estimated scf accuracy    <          3.6E-09 Ry

     total magnetization       =    19.00 Bohr mag/cell
     absolute magnetization    =    19.04 Bohr mag/cell

     iteration # 26     ecut=   100.00 Ry     beta= 0.40
     Davidson diagonalization with overlap
     ethr =  1.90E-12,  avg # of iterations =  4.7

     negative rho (up, down):  0.000E+00 9.240E-04

     total cpu time spent up to now is    20404.5 secs

     total energy              =   -2126.15770691 Ry
     estimated scf accuracy    <          3.0E-09 Ry

     total magnetization       =    19.00 Bohr mag/cell
     absolute magnetization    =    19.04 Bohr mag/cell

     iteration # 27     ecut=   100.00 Ry     beta= 0.40
     Davidson diagonalization with overlap
     ethr =  1.57E-12,  avg # of iterations =  2.0

     negative rho (up, down):  0.000E+00 9.240E-04

     total cpu time spent up to now is    21138.5 secs

     total energy              =   -2126.15770691 Ry
     estimated scf accuracy    <       0.00000001 Ry

     total magnetization       =    19.00 Bohr mag/cell
     absolute magnetization    =    19.04 Bohr mag/cell

     iteration # 28     ecut=   100.00 Ry     beta= 0.40
     Davidson diagonalization with overlap
     ethr =  1.57E-12,  avg # of iterations =  2.0

     negative rho (up, down):  0.000E+00 9.240E-04

     total cpu time spent up to now is    21873.7 secs

     total energy              =   -2126.15770692 Ry
     estimated scf accuracy    <          8.4E-10 Ry

     total magnetization       =    19.00 Bohr mag/cell
     absolute magnetization    =    19.04 Bohr mag/cell

     iteration # 29     ecut=   100.00 Ry     beta= 0.40
     Davidson diagonalization with overlap
     ethr =  4.42E-13,  avg # of iterations =  2.0

     negative rho (up, down):  0.000E+00 9.240E-04

     total cpu time spent up to now is    22612.9 secs

     total energy              =   -2126.15770692 Ry
     estimated scf accuracy    <          4.6E-10 Ry

     total magnetization       =    19.00 Bohr mag/cell
     absolute magnetization    =    19.04 Bohr mag/cell

     iteration # 30     ecut=   100.00 Ry     beta= 0.40
     Davidson diagonalization with overlap
     ethr =  2.44E-13,  avg # of iterations =  1.8

     negative rho (up, down):  0.000E+00 9.240E-04

     total cpu time spent up to now is    23308.7 secs

     total energy              =   -2126.15770692 Ry
     estimated scf accuracy    <          5.3E-10 Ry

     total magnetization       =    19.00 Bohr mag/cell
     absolute magnetization    =    19.04 Bohr mag/cell

     iteration # 31     ecut=   100.00 Ry     beta= 0.40
     Davidson diagonalization with overlap
     ethr =  2.44E-13,  avg # of iterations =  1.5

     negative rho (up, down):  0.000E+00 9.240E-04

     Magnetic moment per site:
     atom:    1    charge:    7.9733    magn:    0.0008    constr:    0.0000
     atom:    2    charge:   12.8295    magn:    3.6209    constr:    0.0000
     atom:    3    charge:   12.8266    magn:    3.6347    constr:    0.0000
     atom:    4    charge:   12.8295    magn:    3.6209    constr:    0.0000
     atom:    5    charge:   12.8266    magn:    3.6347    constr:    0.0000
     atom:    6    charge:    0.8222    magn:    0.0083    constr:    0.0000
     atom:    7    charge:    0.8222    magn:    0.0109    constr:    0.0000
     atom:    8    charge:    0.8222    magn:    0.0083    constr:    0.0000
     atom:    9    charge:    0.8222    magn:    0.0109    constr:    0.0000
     atom:   10    charge:    4.2136    magn:    0.0858    constr:    0.0000
     atom:   11    charge:    4.2110    magn:    0.1335    constr:    0.0000
     atom:   12    charge:    4.2135    magn:    0.0858    constr:    0.0000
     atom:   13    charge:    4.2110    magn:    0.1335    constr:    0.0000
     atom:   14    charge:    4.2242    magn:    0.1338    constr:    0.0000
     atom:   15    charge:    4.2189    magn:    0.0917    constr:    0.0000
     atom:   16    charge:    4.2242    magn:    0.1338    constr:    0.0000
     atom:   17    charge:    4.2189    magn:    0.0917    constr:    0.0000
     atom:   18    charge:    4.1874    magn:    0.1209    constr:    0.0000
     atom:   19    charge:    4.1841    magn:    0.1448    constr:    0.0000
     atom:   20    charge:    4.1882    magn:    0.1325    constr:    0.0000
     atom:   21    charge:    4.1855    magn:    0.1534    constr:    0.0000
     atom:   22    charge:    4.1874    magn:    0.1209    constr:    0.0000
     atom:   23    charge:    4.1841    magn:    0.1449    constr:    0.0000
     atom:   24    charge:    4.1882    magn:    0.1325    constr:    0.0000
     atom:   25    charge:    4.1855    magn:    0.1534    constr:    0.0000

     total cpu time spent up to now is    23970.1 secs

     End of self-consistent calculation

 ------ SPIN UP ------------


          k = 0.0000 0.0000 0.0000 ( 35837 PWs)   bands (ev):

   -84.9578 -84.9578 -84.9170 -84.9170 -51.1056 -51.1056 -51.0874 -51.0874
   -50.9255 -50.9255 -50.8371 -50.8370 -50.8233 -50.8233 -50.8045 -50.8045
   -44.4633 -16.5672 -16.4572 -16.4372 -16.1472 -15.9021 -15.8450 -15.6957
   -13.7550 -13.6200 -13.5721 -13.5335 -13.4900 -13.4360 -13.3316 -13.3208
   -13.3074 -13.2800 -13.1215 -13.0935  -4.0064  -3.5345  -3.4010  -3.0072
    -2.1974  -1.8729  -1.6789  -1.5782  -1.4116  -1.2727  -1.2181  -1.1319
    -0.9636  -0.9018  -0.6147  -0.3046  -0.1632  -0.1537   0.3729   0.4541
     0.4569   0.5849   0.7543   0.8025   0.8853   0.9805   1.0718   1.1576
     1.2391   1.4784   1.5076   1.5592   1.7389   1.7429   1.8210   1.8649
     1.9749   2.1642   2.2446   2.3909   2.3998   2.4247   2.4977   2.6545
     2.6684   2.8293   2.8981   2.9769   3.0069   3.1463   3.2895   3.3238
     3.3905   3.4998   3.5395   3.5487   3.7397   3.8409   3.8651   4.0569
     4.0803   4.2439   4.3087   4.4223   4.6276   4.7333   4.9617   5.0391
     9.4080  11.4434  11.9024  12.3035  12.3908  12.9948  13.4866  13.6288
    13.7838  13.8231

     occupation numbers 
     1.0000   1.0000   1.0000   1.0000   1.0000   1.0000   1.0000   1.0000
     1.0000   1.0000   1.0000   1.0000   1.0000   1.0000   1.0000   1.0000
     1.0000   1.0000   1.0000   1.0000   1.0000   1.0000   1.0000   1.0000
     1.0000   1.0000   1.0000   1.0000   1.0000   1.0000   1.0000   1.0000
     1.0000   1.0000   1.0000   1.0000   1.0000   1.0000   1.0000   1.0000
     1.0000   1.0000   1.0000   1.0000   1.0000   1.0000   1.0000   1.0000
     1.0000   1.0000   1.0000   1.0000   1.0000   1.0000   1.0000   1.0000
     1.0000   1.0000   1.0000   1.0000   1.0000   1.0000   1.0000   1.0000
     1.0000   1.0000   1.0000   1.0000   1.0000   1.0000   1.0000   1.0000
     1.0000   1.0000   1.0000   1.0000   1.0000   1.0000   1.0000   1.0000
     1.0000   1.0000   1.0000   1.0000   1.0000   1.0000   1.0000   1.0000
     1.0000   1.0000   1.0000   1.0000   1.0000   1.0000   1.0000   1.0000
     1.0000   1.0000   1.0000   1.0000   1.0000   1.0000   1.0000   1.0000
     0.0000   0.0000   0.0000   0.0000   0.0000   0.0000   0.0000   0.0000
     0.0000   0.0000

          k = 0.0000 0.0000 0.2298 ( 35841 PWs)   bands (ev):

   -84.9578 -84.9578 -84.9170 -84.9170 -51.1056 -51.1056 -51.0874 -51.0874
   -50.9255 -50.9255 -50.8371 -50.8370 -50.8233 -50.8233 -50.8045 -50.8045
   -44.4633 -16.5661 -16.4578 -16.4456 -16.1210 -15.8976 -15.8372 -15.6998
   -13.7572 -13.6322 -13.5734 -13.5422 -13.4890 -13.4446 -13.3433 -13.3185
   -13.3103 -13.2764 -13.1258 -13.0994  -3.9823  -3.5282  -3.4000  -3.0196
    -2.1480  -1.8470  -1.6828  -1.5623  -1.4058  -1.3069  -1.1772  -1.1016
    -0.9545  -0.8660  -0.6603  -0.2849  -0.1974  -0.1363   0.3848   0.4408
     0.4783   0.6207   0.7306   0.8248   0.8833   0.9441   1.0521   1.1917
     1.2319   1.4679   1.4921   1.5461   1.6881   1.7257   1.7795   1.8030
     2.0803   2.1764   2.2037   2.3180   2.3683   2.4440   2.4673   2.6505
     2.7033   2.8100   2.8997   2.9844   3.1041   3.1461   3.2367   3.2768
     3.3878   3.4789   3.5314   3.5636   3.6968   3.8634   3.9239   4.0584
     4.1080   4.2838   4.3021   4.4180   4.6271   4.7200   4.9358   5.0161
     9.5595  11.5150  11.9668  12.2638  12.4807  12.9585  13.4444  13.5711
    13.6434  13.8370

     occupation numbers 
     1.0000   1.0000   1.0000   1.0000   1.0000   1.0000   1.0000   1.0000
     1.0000   1.0000   1.0000   1.0000   1.0000   1.0000   1.0000   1.0000
     1.0000   1.0000   1.0000   1.0000   1.0000   1.0000   1.0000   1.0000
     1.0000   1.0000   1.0000   1.0000   1.0000   1.0000   1.0000   1.0000
     1.0000   1.0000   1.0000   1.0000   1.0000   1.0000   1.0000   1.0000
     1.0000   1.0000   1.0000   1.0000   1.0000   1.0000   1.0000   1.0000
     1.0000   1.0000   1.0000   1.0000   1.0000   1.0000   1.0000   1.0000
     1.0000   1.0000   1.0000   1.0000   1.0000   1.0000   1.0000   1.0000
     1.0000   1.0000   1.0000   1.0000   1.0000   1.0000   1.0000   1.0000
     1.0000   1.0000   1.0000   1.0000   1.0000   1.0000   1.0000   1.0000
     1.0000   1.0000   1.0000   1.0000   1.0000   1.0000   1.0000   1.0000
     1.0000   1.0000   1.0000   1.0000   1.0000   1.0000   1.0000   1.0000
     1.0000   1.0000   1.0000   1.0000   1.0000   1.0000   1.0000   1.0000
     0.0000   0.0000   0.0000   0.0000   0.0000   0.0000   0.0000   0.0000
     0.0000   0.0000

          k = 0.0000 0.0000 0.4597 ( 35884 PWs)   bands (ev):

   -84.9578 -84.9578 -84.9170 -84.9170 -51.1056 -51.1056 -51.0874 -51.0874
   -50.9255 -50.9255 -50.8371 -50.8370 -50.8233 -50.8233 -50.8045 -50.8045
   -44.4632 -16.5685 -16.4608 -16.4526 -16.0588 -15.8864 -15.8177 -15.7117
   -13.7624 -13.6633 -13.5848 -13.5627 -13.4909 -13.4564 -13.3719 -13.3381
   -13.2923 -13.2645 -13.1383 -13.1163  -3.9129  -3.5200  -3.3926  -3.0656
    -2.0120  -1.7824  -1.6826  -1.5440  -1.3840  -1.3247  -1.1696  -0.9836
    -0.8985  -0.7826  -0.7777  -0.3308  -0.1869  -0.0795   0.4119   0.4511
     0.5090   0.6721   0.7359   0.8578   0.8675   0.8900   0.9836   1.2117
     1.2585   1.4198   1.4793   1.5125   1.5863   1.6498   1.7168   1.7430
     1.9752   2.0940   2.2399   2.3015   2.3229   2.3556   2.5449   2.6186
     2.7602   2.7630   2.9285   3.0083   3.0190   3.1636   3.2144   3.2316
     3.3462   3.4424   3.5717   3.6532   3.7146   3.8692   4.0332   4.0635
     4.1811   4.2719   4.3687   4.4239   4.6164   4.6954   4.8577   4.9470
     9.9666  11.7062  12.1134  12.2762  12.6313  12.9153  13.1692  13.4238
    13.4936  13.6738

     occupation numbers 
     1.0000   1.0000   1.0000   1.0000   1.0000   1.0000   1.0000   1.0000
     1.0000   1.0000   1.0000   1.0000   1.0000   1.0000   1.0000   1.0000
     1.0000   1.0000   1.0000   1.0000   1.0000   1.0000   1.0000   1.0000
     1.0000   1.0000   1.0000   1.0000   1.0000   1.0000   1.0000   1.0000
     1.0000   1.0000   1.0000   1.0000   1.0000   1.0000   1.0000   1.0000
     1.0000   1.0000   1.0000   1.0000   1.0000   1.0000   1.0000   1.0000
     1.0000   1.0000   1.0000   1.0000   1.0000   1.0000   1.0000   1.0000
     1.0000   1.0000   1.0000   1.0000   1.0000   1.0000   1.0000   1.0000
     1.0000   1.0000   1.0000   1.0000   1.0000   1.0000   1.0000   1.0000
     1.0000   1.0000   1.0000   1.0000   1.0000   1.0000   1.0000   1.0000
     1.0000   1.0000   1.0000   1.0000   1.0000   1.0000   1.0000   1.0000
     1.0000   1.0000   1.0000   1.0000   1.0000   1.0000   1.0000   1.0000
     1.0000   1.0000   1.0000   1.0000   1.0000   1.0000   1.0000   1.0000
     0.0000   0.0000   0.0000   0.0000   0.0000   0.0000   0.0000   0.0000
     0.0000   0.0000

          k = 0.0000 0.0000 0.6895 ( 35896 PWs)   bands (ev):

   -84.9578 -84.9578 -84.9170 -84.9170 -51.1056 -51.1056 -51.0874 -51.0874
   -50.9255 -50.9255 -50.8371 -50.8370 -50.8233 -50.8233 -50.8045 -50.8045
   -44.4632 -16.5794 -16.4575 -16.4513 -15.9887 -15.8728 -15.7991 -15.7279
   -13.7661 -13.7006 -13.6190 -13.5744 -13.5043 -13.4527 -13.4012 -13.3628
   -13.2651 -13.2461 -13.1577 -13.1404  -3.8085  -3.5334  -3.3709  -3.1478
    -1.8526  -1.7206  -1.6489  -1.5460  -1.3406  -1.3076  -1.1613  -0.9664
    -0.8762  -0.7330  -0.6787  -0.4824  -0.0593   0.0391   0.4204   0.5064
     0.5519   0.6385   0.7890   0.8165   0.8418   0.8811   0.9389   1.2273
     1.2447   1.3449   1.3740   1.4684   1.5435   1.5834   1.6819   1.7018
     1.7446   1.9587   2.1456   2.2297   2.3047   2.5217   2.5528   2.6811
     2.7287   2.7973   2.8278   2.8601   3.0422   3.0688   3.1500   3.2253
     3.3356   3.4564   3.6966   3.7785   3.8401   3.9383   4.0684   4.0908
     4.2193   4.2986   4.4339   4.4512   4.5966   4.6711   4.7366   4.8346
    10.5295  11.9584  12.1357  12.4056  12.7520  12.8399  13.0431  13.1970
    13.3287  13.3672

     occupation numbers 
     1.0000   1.0000   1.0000   1.0000   1.0000   1.0000   1.0000   1.0000
     1.0000   1.0000   1.0000   1.0000   1.0000   1.0000   1.0000   1.0000
     1.0000   1.0000   1.0000   1.0000   1.0000   1.0000   1.0000   1.0000
     1.0000   1.0000   1.0000   1.0000   1.0000   1.0000   1.0000   1.0000
     1.0000   1.0000   1.0000   1.0000   1.0000   1.0000   1.0000   1.0000
     1.0000   1.0000   1.0000   1.0000   1.0000   1.0000   1.0000   1.0000
     1.0000   1.0000   1.0000   1.0000   1.0000   1.0000   1.0000   1.0000
     1.0000   1.0000   1.0000   1.0000   1.0000   1.0000   1.0000   1.0000
     1.0000   1.0000   1.0000   1.0000   1.0000   1.0000   1.0000   1.0000
     1.0000   1.0000   1.0000   1.0000   1.0000   1.0000   1.0000   1.0000
     1.0000   1.0000   1.0000   1.0000   1.0000   1.0000   1.0000   1.0000
     1.0000   1.0000   1.0000   1.0000   1.0000   1.0000   1.0000   1.0000
     1.0000   1.0000   1.0000   1.0000   1.0000   1.0000   1.0000   1.0000
     0.0000   0.0000   0.0000   0.0000   0.0000   0.0000   0.0000   0.0000
     0.0000   0.0000

          k = 0.0000 0.0000 0.9194 ( 35906 PWs)   bands (ev):

   -84.9578 -84.9578 -84.9170 -84.9170 -51.1056 -51.1056 -51.0874 -51.0874
   -50.9255 -50.9255 -50.8371 -50.8370 -50.8233 -50.8233 -50.8045 -50.8045
   -44.4632 -16.5889 -16.4550 -16.4451 -15.9392 -15.8592 -15.7985 -15.7374
   -13.7643 -13.7288 -13.6470 -13.5828 -13.5144 -13.4451 -13.4170 -13.3808
   -13.2368 -13.2290 -13.1799 -13.1624  -3.6901  -3.5893  -3.3274  -3.2403
    -1.7575  -1.7106  -1.5931  -1.5399  -1.2823  -1.2340  -1.1841  -1.1059
    -0.7965  -0.6573  -0.6083  -0.5807   0.1427   0.2382   0.3704   0.4829
     0.5695   0.5906   0.7294   0.7531   0.7878   0.8794   1.0260   1.1570
     1.2382   1.2837   1.3248   1.3839   1.4850   1.5196   1.6373   1.6879
     1.7954   1.9382   2.0000   2.1093   2.3271   2.5207   2.6591   2.6928
     2.7263   2.7680   2.8021   2.8484   2.9216   2.9933   3.1451   3.2245
     3.3328   3.4643   3.8083   3.8449   3.8784   4.0853   4.1054   4.1518
     4.1951   4.4217   4.4423   4.4660   4.5394   4.6167   4.6720   4.7164
    11.1509  11.7391  12.2681  12.4841  12.7849  12.8570  12.9412  13.0636
    13.2845  13.3542

     occupation numbers 
     1.0000   1.0000   1.0000   1.0000   1.0000   1.0000   1.0000   1.0000
     1.0000   1.0000   1.0000   1.0000   1.0000   1.0000   1.0000   1.0000
     1.0000   1.0000   1.0000   1.0000   1.0000   1.0000   1.0000   1.0000
     1.0000   1.0000   1.0000   1.0000   1.0000   1.0000   1.0000   1.0000
     1.0000   1.0000   1.0000   1.0000   1.0000   1.0000   1.0000   1.0000
     1.0000   1.0000   1.0000   1.0000   1.0000   1.0000   1.0000   1.0000
     1.0000   1.0000   1.0000   1.0000   1.0000   1.0000   1.0000   1.0000
     1.0000   1.0000   1.0000   1.0000   1.0000   1.0000   1.0000   1.0000
     1.0000   1.0000   1.0000   1.0000   1.0000   1.0000   1.0000   1.0000
     1.0000   1.0000   1.0000   1.0000   1.0000   1.0000   1.0000   1.0000
     1.0000   1.0000   1.0000   1.0000   1.0000   1.0000   1.0000   1.0000
     1.0000   1.0000   1.0000   1.0000   1.0000   1.0000   1.0000   1.0000
     1.0000   1.0000   1.0000   1.0000   1.0000   1.0000   1.0000   1.0000
     0.0000   0.0000   0.0000   0.0000   0.0000   0.0000   0.0000   0.0000
     0.0000   0.0000

          k = 0.0000 0.2351 0.0000 ( 35823 PWs)   bands (ev):

   -84.9578 -84.9578 -84.9170 -84.9170 -51.1056 -51.1056 -51.0874 -51.0874
   -50.9255 -50.9255 -50.8371 -50.8370 -50.8233 -50.8233 -50.8045 -50.8045
   -44.4633 -16.5693 -16.4573 -16.4372 -16.1264 -15.9002 -15.8425 -15.7162
   -13.7566 -13.6174 -13.5777 -13.5375 -13.5110 -13.4367 -13.3434 -13.3183
   -13.3041 -13.2458 -13.1176 -13.1045  -3.9814  -3.5554  -3.3762  -3.0159
    -2.1722  -1.8812  -1.6750  -1.5836  -1.3766  -1.2721  -1.2006  -1.1115
    -0.9570  -0.8751  -0.5838  -0.2914  -0.2297  -0.0993   0.4072   0.4432
     0.4951   0.5409   0.6397   0.7255   0.8219   1.0093   1.1252   1.1889
     1.3400   1.4919   1.5118   1.5451   1.6462   1.6780   1.7624   1.7936
     1.9874   2.1846   2.2866   2.3476   2.4048   2.4630   2.5617   2.6111
     2.7165   2.8150   2.8297   2.8624   3.0129   3.1671   3.2761   3.3524
     3.3941   3.4204   3.4933   3.6516   3.7959   3.8395   3.8646   4.0638
     4.0880   4.2560   4.2898   4.3975   4.5806   4.7150   5.0335   5.0496
     9.5622  11.5313  11.9805  12.1981  12.5006  13.0763  13.4209  13.6347
    13.7074  13.8221

     occupation numbers 
     1.0000   1.0000   1.0000   1.0000   1.0000   1.0000   1.0000   1.0000
     1.0000   1.0000   1.0000   1.0000   1.0000   1.0000   1.0000   1.0000
     1.0000   1.0000   1.0000   1.0000   1.0000   1.0000   1.0000   1.0000
     1.0000   1.0000   1.0000   1.0000   1.0000   1.0000   1.0000   1.0000
     1.0000   1.0000   1.0000   1.0000   1.0000   1.0000   1.0000   1.0000
     1.0000   1.0000   1.0000   1.0000   1.0000   1.0000   1.0000   1.0000
     1.0000   1.0000   1.0000   1.0000   1.0000   1.0000   1.0000   1.0000
     1.0000   1.0000   1.0000   1.0000   1.0000   1.0000   1.0000   1.0000
     1.0000   1.0000   1.0000   1.0000   1.0000   1.0000   1.0000   1.0000
     1.0000   1.0000   1.0000   1.0000   1.0000   1.0000   1.0000   1.0000
     1.0000   1.0000   1.0000   1.0000   1.0000   1.0000   1.0000   1.0000
     1.0000   1.0000   1.0000   1.0000   1.0000   1.0000   1.0000   1.0000
     1.0000   1.0000   1.0000   1.0000   1.0000   1.0000   1.0000   1.0000
     0.0000   0.0000   0.0000   0.0000   0.0000   0.0000   0.0000   0.0000
     0.0000   0.0000

          k = 0.0000 0.2351 0.2298 ( 35841 PWs)   bands (ev):

   -84.9578 -84.9578 -84.9170 -84.9170 -51.1056 -51.1056 -51.0874 -51.0874
   -50.9255 -50.9255 -50.8371 -50.8370 -50.8233 -50.8233 -50.8045 -50.8045
   -44.4633 -16.5646 -16.4583 -16.4456 -16.1074 -15.8945 -15.8364 -15.7151
   -13.7576 -13.6266 -13.5787 -13.5397 -13.5226 -13.4446 -13.3557 -13.3250
   -13.2999 -13.2398 -13.1236 -13.1082  -3.9577  -3.5477  -3.3747  -3.0289
    -2.1247  -1.8556  -1.6730  -1.5717  -1.3708  -1.2940  -1.1629  -1.0892
    -0.9279  -0.8570  -0.6258  -0.3312  -0.2002  -0.0909   0.4061   0.4379
     0.5279   0.5526   0.6328   0.7325   0.7975   0.9902   1.1256   1.2047
     1.2923   1.4786   1.5196   1.5355   1.6227   1.6431   1.7281   1.7748
     2.1163   2.1761   2.2371   2.3281   2.3693   2.4878   2.5130   2.5957
     2.7454   2.7868   2.8284   2.9220   3.0098   3.1676   3.2085   3.3512
     3.3633   3.4200   3.5323   3.5933   3.7582   3.8697   3.9262   4.0657
     4.1104   4.2495   4.3359   4.3764   4.5662   4.7258   5.0131   5.0373
     9.7082  11.6052  12.0386  12.2279  12.5213  13.0323  13.4340  13.4897
    13.6570  13.8198

     occupation numbers 
     1.0000   1.0000   1.0000   1.0000   1.0000   1.0000   1.0000   1.0000
     1.0000   1.0000   1.0000   1.0000   1.0000   1.0000   1.0000   1.0000
     1.0000   1.0000   1.0000   1.0000   1.0000   1.0000   1.0000   1.0000
     1.0000   1.0000   1.0000   1.0000   1.0000   1.0000   1.0000   1.0000
     1.0000   1.0000   1.0000   1.0000   1.0000   1.0000   1.0000   1.0000
     1.0000   1.0000   1.0000   1.0000   1.0000   1.0000   1.0000   1.0000
     1.0000   1.0000   1.0000   1.0000   1.0000   1.0000   1.0000   1.0000
     1.0000   1.0000   1.0000   1.0000   1.0000   1.0000   1.0000   1.0000
     1.0000   1.0000   1.0000   1.0000   1.0000   1.0000   1.0000   1.0000
     1.0000   1.0000   1.0000   1.0000   1.0000   1.0000   1.0000   1.0000
     1.0000   1.0000   1.0000   1.0000   1.0000   1.0000   1.0000   1.0000
     1.0000   1.0000   1.0000   1.0000   1.0000   1.0000   1.0000   1.0000
     1.0000   1.0000   1.0000   1.0000   1.0000   1.0000   1.0000   1.0000
     0.0000   0.0000   0.0000   0.0000   0.0000   0.0000   0.0000   0.0000
     0.0000   0.0000

          k = 0.0000 0.2351 0.4597 ( 35884 PWs)   bands (ev):

   -84.9578 -84.9578 -84.9170 -84.9170 -51.1056 -51.1056 -51.0874 -51.0874
   -50.9255 -50.9255 -50.8371 -50.8370 -50.8233 -50.8233 -50.8045 -50.8045
   -44.4632 -16.5638 -16.4623 -16.4525 -16.0520 -15.8849 -15.8162 -15.7207
   -13.7622 -13.6588 -13.5855 -13.5561 -13.5276 -13.4627 -13.3864 -13.3441
   -13.2836 -13.2285 -13.1361 -13.1206  -3.8895  -3.5348  -3.3693  -3.0736
    -1.9944  -1.7904  -1.6646  -1.5524  -1.3509  -1.3059  -1.1498  -0.9686
    -0.8754  -0.7900  -0.7372  -0.4100  -0.1426  -0.0611   0.4093   0.4544
     0.5241   0.5434   0.7209   0.7418   0.7989   0.9481   1.1068   1.2155
     1.2399   1.4485   1.4859   1.5166   1.5569   1.6010   1.6702   1.7579
     2.0148   2.1377   2.2521   2.3078   2.3468   2.3542   2.5664   2.6060
     2.6741   2.7908   2.9000   2.9339   3.0159   3.0854   3.1783   3.2559
     3.3552   3.4313   3.5685   3.6351   3.7578   3.8825   4.0177   4.0793
     4.1683   4.2497   4.3417   4.4116   4.5438   4.7342   4.9610   4.9902
    10.1031  11.7976  12.1908  12.3010  12.6212  12.9802  13.1849  13.3969
    13.4800  13.7162

     occupation numbers 
     1.0000   1.0000   1.0000   1.0000   1.0000   1.0000   1.0000   1.0000
     1.0000   1.0000   1.0000   1.0000   1.0000   1.0000   1.0000   1.0000
     1.0000   1.0000   1.0000   1.0000   1.0000   1.0000   1.0000   1.0000
     1.0000   1.0000   1.0000   1.0000   1.0000   1.0000   1.0000   1.0000
     1.0000   1.0000   1.0000   1.0000   1.0000   1.0000   1.0000   1.0000
     1.0000   1.0000   1.0000   1.0000   1.0000   1.0000   1.0000   1.0000
     1.0000   1.0000   1.0000   1.0000   1.0000   1.0000   1.0000   1.0000
     1.0000   1.0000   1.0000   1.0000   1.0000   1.0000   1.0000   1.0000
     1.0000   1.0000   1.0000   1.0000   1.0000   1.0000   1.0000   1.0000
     1.0000   1.0000   1.0000   1.0000   1.0000   1.0000   1.0000   1.0000
     1.0000   1.0000   1.0000   1.0000   1.0000   1.0000   1.0000   1.0000
     1.0000   1.0000   1.0000   1.0000   1.0000   1.0000   1.0000   1.0000
     1.0000   1.0000   1.0000   1.0000   1.0000   1.0000   1.0000   1.0000
     0.0000   0.0000   0.0000   0.0000   0.0000   0.0000   0.0000   0.0000
     0.0000   0.0000

          k = 0.0000 0.2351 0.6895 ( 35919 PWs)   bands (ev):

   -84.9578 -84.9578 -84.9170 -84.9170 -51.1056 -51.1056 -51.0874 -51.0874
   -50.9255 -50.9255 -50.8371 -50.8370 -50.8233 -50.8233 -50.8045 -50.8045
   -44.4632 -16.5741 -16.4583 -16.4516 -15.9846 -15.8790 -15.7908 -15.7328
   -13.7668 -13.6984 -13.6130 -13.5729 -13.5289 -13.4711 -13.4172 -13.3680
   -13.2602 -13.2123 -13.1533 -13.1400  -3.7875  -3.5400  -3.3526  -3.1524
    -1.8391  -1.7238  -1.6310  -1.5486  -1.3166  -1.2773  -1.1423  -0.9509
    -0.8320  -0.7271  -0.6866  -0.5282  -0.0366   0.0127   0.3837   0.4527
     0.5001   0.5951   0.7114   0.8222   0.8650   0.9376   1.0336   1.1615
     1.2740   1.3631   1.4068   1.4643   1.5331   1.5993   1.6052   1.7275
     1.7798   1.9837   2.1475   2.2449   2.3093   2.5159   2.5533   2.6366
     2.6622   2.7801   2.8280   2.9323   2.9695   3.0450   3.1204   3.2222
     3.3366   3.4189   3.6935   3.7707   3.8235   3.9121   4.0470   4.0982
     4.2163   4.2737   4.3106   4.4294   4.5852   4.7367   4.8791   4.9177
    10.6540  12.0551  12.2390  12.4381  12.7894  12.8809  13.0571  13.1834
    13.3371  13.3544

     occupation numbers 
     1.0000   1.0000   1.0000   1.0000   1.0000   1.0000   1.0000   1.0000
     1.0000   1.0000   1.0000   1.0000   1.0000   1.0000   1.0000   1.0000
     1.0000   1.0000   1.0000   1.0000   1.0000   1.0000   1.0000   1.0000
     1.0000   1.0000   1.0000   1.0000   1.0000   1.0000   1.0000   1.0000
     1.0000   1.0000   1.0000   1.0000   1.0000   1.0000   1.0000   1.0000
     1.0000   1.0000   1.0000   1.0000   1.0000   1.0000   1.0000   1.0000
     1.0000   1.0000   1.0000   1.0000   1.0000   1.0000   1.0000   1.0000
     1.0000   1.0000   1.0000   1.0000   1.0000   1.0000   1.0000   1.0000
     1.0000   1.0000   1.0000   1.0000   1.0000   1.0000   1.0000   1.0000
     1.0000   1.0000   1.0000   1.0000   1.0000   1.0000   1.0000   1.0000
     1.0000   1.0000   1.0000   1.0000   1.0000   1.0000   1.0000   1.0000
     1.0000   1.0000   1.0000   1.0000   1.0000   1.0000   1.0000   1.0000
     1.0000   1.0000   1.0000   1.0000   1.0000   1.0000   1.0000   1.0000
     0.0000   0.0000   0.0000   0.0000   0.0000   0.0000   0.0000   0.0000
     0.0000   0.0000

          k = 0.0000 0.2351 0.9194 ( 35896 PWs)   bands (ev):

   -84.9578 -84.9578 -84.9170 -84.9170 -51.1056 -51.1056 -51.0874 -51.0874
   -50.9255 -50.9255 -50.8371 -50.8370 -50.8233 -50.8233 -50.8045 -50.8045
   -44.4632 -16.5852 -16.4550 -16.4453 -15.9300 -15.8745 -15.7818 -15.7451
   -13.7656 -13.7281 -13.6418 -13.5821 -13.5328 -13.4680 -13.4305 -13.3878
   -13.2372 -13.1965 -13.1730 -13.1573  -3.6736  -3.5855  -3.3176  -3.2394
    -1.7405  -1.7040  -1.5874  -1.5391  -1.2629  -1.2143  -1.1519  -1.0770
    -0.7740  -0.6887  -0.6031  -0.5767   0.1101   0.1593   0.2838   0.3252
     0.5853   0.6592   0.7036   0.8406   0.8927   0.9261   1.0436   1.1088
     1.2450   1.2830   1.3589   1.4174   1.4735   1.5427   1.5936   1.6423
     1.8009   1.9079   2.0242   2.1288   2.3388   2.5183   2.6061   2.6300
     2.7019   2.7690   2.7886   2.8882   2.9122   3.0162   3.1018   3.2218
     3.3237   3.4151   3.7858   3.8497   3.9008   4.0210   4.0662   4.1160
     4.1664   4.2383   4.3686   4.4369   4.6423   4.7284   4.7873   4.8572
    11.2675  11.8497  12.3561  12.5840  12.8277  12.8949  12.9629  13.0768
    13.2382  13.3150

     occupation numbers 
     1.0000   1.0000   1.0000   1.0000   1.0000   1.0000   1.0000   1.0000
     1.0000   1.0000   1.0000   1.0000   1.0000   1.0000   1.0000   1.0000
     1.0000   1.0000   1.0000   1.0000   1.0000   1.0000   1.0000   1.0000
     1.0000   1.0000   1.0000   1.0000   1.0000   1.0000   1.0000   1.0000
     1.0000   1.0000   1.0000   1.0000   1.0000   1.0000   1.0000   1.0000
     1.0000   1.0000   1.0000   1.0000   1.0000   1.0000   1.0000   1.0000
     1.0000   1.0000   1.0000   1.0000   1.0000   1.0000   1.0000   1.0000
     1.0000   1.0000   1.0000   1.0000   1.0000   1.0000   1.0000   1.0000
     1.0000   1.0000   1.0000   1.0000   1.0000   1.0000   1.0000   1.0000
     1.0000   1.0000   1.0000   1.0000   1.0000   1.0000   1.0000   1.0000
     1.0000   1.0000   1.0000   1.0000   1.0000   1.0000   1.0000   1.0000
     1.0000   1.0000   1.0000   1.0000   1.0000   1.0000   1.0000   1.0000
     1.0000   1.0000   1.0000   1.0000   1.0000   1.0000   1.0000   1.0000
     0.0000   0.0000   0.0000   0.0000   0.0000   0.0000   0.0000   0.0000
     0.0000   0.0000

          k = 0.0000 0.4701 0.0000 ( 35853 PWs)   bands (ev):

   -84.9578 -84.9578 -84.9170 -84.9170 -51.1056 -51.1056 -51.0874 -51.0874
   -50.9255 -50.9255 -50.8371 -50.8370 -50.8233 -50.8233 -50.8045 -50.8045
   -44.4633 -16.5735 -16.4575 -16.4370 -16.0695 -15.8959 -15.8403 -15.7690
   -13.7565 -13.6305 -13.6008 -13.5527 -13.5041 -13.4411 -13.3597 -13.3348
   -13.2729 -13.1936 -13.1330 -13.1118  -3.9123  -3.6167  -3.3067  -3.0500
    -2.1058  -1.9064  -1.6633  -1.5954  -1.3195  -1.2665  -1.1445  -1.0272
    -0.9780  -0.7741  -0.5384  -0.3829  -0.1864  -0.0139   0.3872   0.4109
     0.4958   0.5204   0.5820   0.6465   0.6689   0.9940   1.1879   1.2938
     1.3425   1.3731   1.4145   1.4900   1.5708   1.6010   1.7621   1.8410
     2.0597   2.1626   2.2730   2.3595   2.4211   2.4322   2.5101   2.5447
     2.7208   2.8147   2.8304   2.8908   2.9935   3.1345   3.2121   3.2310
     3.3352   3.3620   3.6777   3.7248   3.8138   3.8529   3.9025   4.0814
     4.0994   4.1779   4.2701   4.3410   4.4851   4.8486   5.0577   5.0871
     9.9831  11.7733  11.8167  12.1919  12.6949  13.2305  13.2863  13.5232
    13.7735  13.8786

     occupation numbers 
     1.0000   1.0000   1.0000   1.0000   1.0000   1.0000   1.0000   1.0000
     1.0000   1.0000   1.0000   1.0000   1.0000   1.0000   1.0000   1.0000
     1.0000   1.0000   1.0000   1.0000   1.0000   1.0000   1.0000   1.0000
     1.0000   1.0000   1.0000   1.0000   1.0000   1.0000   1.0000   1.0000
     1.0000   1.0000   1.0000   1.0000   1.0000   1.0000   1.0000   1.0000
     1.0000   1.0000   1.0000   1.0000   1.0000   1.0000   1.0000   1.0000
     1.0000   1.0000   1.0000   1.0000   1.0000   1.0000   1.0000   1.0000
     1.0000   1.0000   1.0000   1.0000   1.0000   1.0000   1.0000   1.0000
     1.0000   1.0000   1.0000   1.0000   1.0000   1.0000   1.0000   1.0000
     1.0000   1.0000   1.0000   1.0000   1.0000   1.0000   1.0000   1.0000
     1.0000   1.0000   1.0000   1.0000   1.0000   1.0000   1.0000   1.0000
     1.0000   1.0000   1.0000   1.0000   1.0000   1.0000   1.0000   1.0000
     1.0000   1.0000   1.0000   1.0000   1.0000   1.0000   1.0000   1.0000
     0.0000   0.0000   0.0000   0.0000   0.0000   0.0000   0.0000   0.0000
     0.0000   0.0000

          k = 0.0000 0.4701 0.2298 ( 35845 PWs)   bands (ev):

   -84.9578 -84.9578 -84.9170 -84.9170 -51.1056 -51.1056 -51.0874 -51.0874
   -50.9255 -50.9255 -50.8371 -50.8370 -50.8233 -50.8233 -50.8045 -50.8045
   -44.4633 -16.5671 -16.4585 -16.4447 -16.0578 -15.8874 -15.8358 -15.7636
   -13.7562 -13.6269 -13.6092 -13.5592 -13.5177 -13.4506 -13.3764 -13.3414
   -13.2681 -13.1867 -13.1333 -13.1175  -3.8899  -3.6052  -3.3064  -3.0624
    -2.0631  -1.8794  -1.6517  -1.5862  -1.3184  -1.2636  -1.1032  -1.0374
    -0.9208  -0.7769  -0.5778  -0.4332  -0.1540  -0.0059   0.3609   0.3785
[...]
     atom   10 type  3   force =    -0.00276107   -0.00027245   -0.00036703
     atom   11 type  3   force =     0.00464246   -0.00019561   -0.00166881
     atom   12 type  3   force =     0.00276532    0.00027464    0.00041828
     atom   13 type  3   force =    -0.00464037    0.00019597    0.00164461
     atom   14 type  3   force =    -0.03307832    0.00034606    0.00932448
     atom   15 type  3   force =     0.03319196   -0.00073920    0.00853489
     atom   16 type  3   force =     0.03307961   -0.00034577   -0.00932579
     atom   17 type  3   force =    -0.03317324    0.00073948   -0.00852802
     atom   18 type  3   force =     0.00511841    0.00283986   -0.00056926
     atom   19 type  3   force =    -0.00455307   -0.00179356   -0.00078879
     atom   20 type  3   force =    -0.00347477    0.00234568    0.00140474
     atom   21 type  3   force =     0.00413349   -0.00151625    0.00037448
     atom   22 type  3   force =    -0.00512770   -0.00284608    0.00057371
     atom   23 type  3   force =     0.00454783    0.00178370    0.00078185
     atom   24 type  3   force =     0.00346985   -0.00234001   -0.00139733
     atom   25 type  3   force =    -0.00413676    0.00152152   -0.00037901
     The non-local contrib.  to forces
     atom    1 type  2   force =     0.00001282   -0.00001116   -0.00000541
     atom    2 type  1   force =    -0.07293183    0.00618243    0.09296703
     atom    3 type  1   force =    -0.10333383   -0.06439604    0.11438005
     atom    4 type  1   force =     0.07292383   -0.00618250   -0.09299705
     atom    5 type  1   force =     0.10332443    0.06439832   -0.11435533
     atom    6 type  4   force =     0.00449185    0.00370742   -0.01075885
     atom    7 type  4   force =    -0.00879426    0.00493606   -0.02916521
     atom    8 type  4   force =    -0.00451093   -0.00370904    0.01069963
     atom    9 type  4   force =     0.00879636   -0.00493192    0.02919537
     atom   10 type  3   force =     0.21352298    0.02360363   -1.45701213
     atom   11 type  3   force =    -0.34303588    0.02143034   -1.48157213
     atom   12 type  3   force =    -0.21356149   -0.02361455    1.45697476
     atom   13 type  3   force =     0.34302465   -0.02142935    1.48158411
     atom   14 type  3   force =     1.17318913   -0.01435142   -0.69044372
     atom   15 type  3   force =    -1.20110145    0.01470743   -0.58386217
     atom   16 type  3   force =    -1.17319503    0.01435258    0.69042556
     atom   17 type  3   force =     1.20107434   -0.01469002    0.58390088
     atom   18 type  3   force =    -0.61944499   -1.11512792    0.67210694
     atom   19 type  3   force =     0.55362223    1.12781475    0.74130711
     atom   20 type  3   force =     0.56484865   -1.10673256   -0.81066019
     atom   21 type  3   force =    -0.51436189    1.09835665   -0.73198515
     atom   22 type  3   force =     0.61946028    1.11514955   -0.67207730
     atom   23 type  3   force =    -0.55360486   -1.12780717   -0.74131856
     atom   24 type  3   force =    -0.56483771    1.10670136    0.81068751
     atom   25 type  3   force =     0.51436937   -1.09835937    0.73197630
     The ionic contribution  to forces
     atom    1 type  2   force =     0.00080295   -0.00038874    0.00030340
     atom    2 type  1   force =     9.10244347   -1.79812331   -0.76307462
     atom    3 type  1   force =     2.21397741    1.08208079   -0.72399520
     atom    4 type  1   force =    -9.10294250    1.79839857    0.76314124
     atom    5 type  1   force =    -2.21417791   -1.08222940    0.72392349
     atom    6 type  4   force =    -1.01192741   -1.58055176    1.04049298
     atom    7 type  4   force =     3.86013898    0.06546428    0.53458672
     atom    8 type  4   force =     1.01196186    1.58065933   -1.04094408
     atom    9 type  4   force =    -3.86023799   -0.06546050   -0.53441211
     atom   10 type  3   force =    -5.91378484   -2.57978492    1.64585825
     atom   11 type  3   force =    11.20114534   -0.07493247    2.58391061
     atom   12 type  3   force =     5.91417249    2.57998338   -1.64525659
     atom   13 type  3   force =   -11.20121108    0.07490567   -2.58407616
     atom   14 type  3   force =     2.91351346    0.09719230    6.55391864
     atom   15 type  3   force =    -0.51230614    2.54947672    4.19009283
     atom   16 type  3   force =    -2.91366579   -0.09718164   -6.55387519
     atom   17 type  3   force =     0.51281754   -2.54953770   -4.19016199
     atom   18 type  3   force =     1.60269889    2.93446349   -0.59483692
     atom   19 type  3   force =     5.02938390   -3.29630043   -2.78119066
     atom   20 type  3   force =     1.24883824    2.71016635    3.05757014
     atom   21 type  3   force =    -4.51768225   -3.17576884    2.61758613
     atom   22 type  3   force =    -1.60298197   -2.93444275    0.59446669
     atom   23 type  3   force =    -5.02966132    3.29622397    2.78124468
     atom   24 type  3   force =    -1.24884128   -2.71003594   -3.05766726
     atom   25 type  3   force =     4.51752596    3.17572355   -2.61760499
     The local contribution  to forces
     atom    1 type  2   force =    -0.00081213    0.00039508   -0.00029239
     atom    2 type  1   force =    -9.03678967    1.79116150    0.66862628
     atom    3 type  1   force =    -2.10748649   -1.01843233    0.61003143
     atom    4 type  1   force =     9.03730248   -1.79143456   -0.66865458
     atom    5 type  1   force =     2.10769828    1.01857676   -0.60999319
     atom    6 type  4   force =     1.03449661    1.57603186   -1.02317492
     atom    7 type  4   force =    -3.88458371   -0.06960442   -0.50158324
     atom    8 type  4   force =    -1.03453271   -1.57613591    1.02360243
     atom    9 type  4   force =     3.88468403    0.06960031    0.50142127
     atom   10 type  3   force =     5.70000367    2.55609440   -0.20185255
     atom   11 type  3   force =   -10.85708247    0.05350746   -1.11690579
     atom   12 type  3   force =    -5.70035183   -2.55627984    0.20134093
     atom   13 type  3   force =    10.85716768   -0.05348158    1.11703257
     atom   14 type  3   force =    -4.11031387   -0.08262188   -5.86049465
     atom   15 type  3   force =     1.73699859   -2.56472303   -3.60317071
     atom   16 type  3   force =     4.11047725    0.08261034    5.86046790
     atom   17 type  3   force =    -1.73747227    2.56476689    3.60320990
     atom   18 type  3   force =    -0.98341759   -1.82616690   -0.07173875
     atom   19 type  3   force =    -5.58279839    2.17641083    2.04576622
     atom   20 type  3   force =    -1.81234100   -1.61053618   -2.25288746
     atom   21 type  3   force =     5.03179401    2.08535067   -1.89182708
     atom   22 type  3   force =     0.98367392    1.82611458    0.07208232
     atom   23 type  3   force =     5.58305637   -2.17635589   -2.04581344
     atom   24 type  3   force =     1.81232572    1.61044682    2.25296304
     atom   25 type  3   force =    -5.03164526   -2.08529346    1.89185264
     The core correction contribution to forces
     atom    1 type  2   force =     0.00000000    0.00000000    0.00000000
     atom    2 type  1   force =     0.00046095   -0.00019176    0.00072742
     atom    3 type  1   force =     0.00151460    0.00064957   -0.00045799
     atom    4 type  1   force =    -0.00046098    0.00019173   -0.00072747
     atom    5 type  1   force =    -0.00151495   -0.00064963    0.00045810
     atom    6 type  4   force =    -0.00105306    0.00023942   -0.00024554
     atom    7 type  4   force =     0.00113198   -0.00029968    0.00163291
     atom    8 type  4   force =     0.00105469   -0.00023937    0.00025089
     atom    9 type  4   force =    -0.00113223    0.00029931   -0.00163565
     atom   10 type  3   force =    -0.00250832   -0.00018550    0.01263720
     atom   11 type  3   force =     0.00361672   -0.00020108    0.01289845
     atom   12 type  3   force =     0.00250864    0.00018557   -0.01263770
     atom   13 type  3   force =    -0.00361664    0.00020107   -0.01289815
     atom   14 type  3   force =    -0.00945981    0.00012718    0.00634541
     atom   15 type  3   force =     0.00959875   -0.00020034    0.00547473
     atom   16 type  3   force =     0.00945983   -0.00012719   -0.00634523
     atom   17 type  3   force =    -0.00959881    0.00020017   -0.00547521
     atom   18 type  3   force =     0.00527944    0.00967281   -0.00609873
     atom   19 type  3   force =    -0.00475915   -0.00971553   -0.00667253
     atom   20 type  3   force =    -0.00482054    0.00945401    0.00737863
     atom   21 type  3   force =     0.00438517   -0.00944748    0.00660426
     atom   22 type  3   force =    -0.00527944   -0.00967288    0.00609839
     atom   23 type  3   force =     0.00475908    0.00971563    0.00667273
     atom   24 type  3   force =     0.00482052   -0.00945384   -0.00737898
     atom   25 type  3   force =    -0.00438519    0.00944741   -0.00660412
     The Hubbard contrib.    to forces
     atom    1 type  2   force =     0.00000000    0.00000000    0.00000000
     atom    2 type  1   force =     0.00000000    0.00000000    0.00000000
     atom    3 type  1   force =     0.00000000    0.00000000    0.00000000
     atom    4 type  1   force =     0.00000000    0.00000000    0.00000000
     atom    5 type  1   force =     0.00000000    0.00000000    0.00000000
     atom    6 type  4   force =     0.00000000    0.00000000    0.00000000
     atom    7 type  4   force =     0.00000000    0.00000000    0.00000000
     atom    8 type  4   force =     0.00000000    0.00000000    0.00000000
     atom    9 type  4   force =     0.00000000    0.00000000    0.00000000
     atom   10 type  3   force =     0.00000000    0.00000000    0.00000000
     atom   11 type  3   force =     0.00000000    0.00000000    0.00000000
     atom   12 type  3   force =     0.00000000    0.00000000    0.00000000
     atom   13 type  3   force =     0.00000000    0.00000000    0.00000000
     atom   14 type  3   force =     0.00000000    0.00000000    0.00000000
     atom   15 type  3   force =     0.00000000    0.00000000    0.00000000
     atom   16 type  3   force =     0.00000000    0.00000000    0.00000000
     atom   17 type  3   force =     0.00000000    0.00000000    0.00000000
     atom   18 type  3   force =     0.00000000    0.00000000    0.00000000
     atom   19 type  3   force =     0.00000000    0.00000000    0.00000000
     atom   20 type  3   force =     0.00000000    0.00000000    0.00000000
     atom   21 type  3   force =     0.00000000    0.00000000    0.00000000
     atom   22 type  3   force =     0.00000000    0.00000000    0.00000000
     atom   23 type  3   force =     0.00000000    0.00000000    0.00000000
     atom   24 type  3   force =     0.00000000    0.00000000    0.00000000
     atom   25 type  3   force =     0.00000000    0.00000000    0.00000000
     The SCF correction term to forces
     atom    1 type  2   force =     0.00000336    0.00000126    0.00000020
     atom    2 type  1   force =    -0.00000328   -0.00000013   -0.00000074
     atom    3 type  1   force =    -0.00000016    0.00000030    0.00000041
     atom    4 type  1   force =    -0.00000005   -0.00000045    0.00000040
     atom    5 type  1   force =     0.00000147    0.00000015    0.00000088
     atom    6 type  4   force =     0.00000287    0.00000000   -0.00000035
     atom    7 type  4   force =    -0.00000125    0.00000009   -0.00000013
     atom    8 type  4   force =     0.00000027   -0.00000017    0.00000023
     atom    9 type  4   force =    -0.00000215    0.00000006   -0.00000130
     atom   10 type  3   force =     0.00000541   -0.00000009    0.00000225
     atom   11 type  3   force =    -0.00000128    0.00000013    0.00000009
     atom   12 type  3   force =    -0.00000252    0.00000005   -0.00000307
     atom   13 type  3   force =    -0.00000500    0.00000014    0.00000229
     atom   14 type  3   force =    -0.00000727   -0.00000014   -0.00000116
     atom   15 type  3   force =     0.00000218    0.00000000    0.00000026
     atom   16 type  3   force =     0.00000332    0.00000012    0.00000121
     atom   17 type  3   force =     0.00000593    0.00000012   -0.00000154
     atom   18 type  3   force =     0.00000263   -0.00000164   -0.00000175
     atom   19 type  3   force =    -0.00000168   -0.00000320    0.00000110
     atom   20 type  3   force =    -0.00000016   -0.00000597    0.00000367
     atom   21 type  3   force =    -0.00000157   -0.00000728   -0.00000363
     atom   22 type  3   force =    -0.00000052    0.00000540    0.00000364
     atom   23 type  3   force =    -0.00000147    0.00000713   -0.00000352
     atom   24 type  3   force =     0.00000257    0.00000157   -0.00000158
     atom   25 type  3   force =    -0.00000168    0.00000337    0.00000121

     Total force =     0.093108     Total SCF correction =     0.000023


     Computing stress (Cartesian axis) and pressure


     negative rho (up, down):  0.000E+00 9.240E-04
          total   stress  (Ry/bohr**3)                   (kbar)     P=        1.83
   0.00010432  -0.00001436   0.00002488           15.35       -2.11        3.66
  -0.00001436  -0.00007975  -0.00001601           -2.11      -11.73       -2.36
   0.00002488  -0.00001601   0.00001273            3.66       -2.36        1.87

     kinetic stress (kbar)  26936.16     20.06     -3.48
                               20.06  27109.48      0.88
                               -3.48      0.88  26909.07

     local   stress (kbar)  -5215.51   2869.17   -935.19
                             2869.17 -14228.45    981.71
                             -935.19    981.71  -7185.93

     nonloc. stress (kbar)  -6866.20      0.87     -0.38
                                0.87  -6804.28      1.73
                               -0.38      1.73  -6806.17

     hartree stress (kbar)  13026.24  -1158.84    358.70
                            -1158.84  18036.52   -397.78
                              358.70   -397.78  14553.48

     exc-cor stress (kbar)  -2850.43     -1.58      0.67
                               -1.58  -2857.60     -0.34
                                0.67     -0.34  -2855.62

     corecor stress (kbar)  -3168.88      0.65     -0.44
                                0.65  -3167.69     -0.04
                               -0.44     -0.04  -3169.30

     ewald   stress (kbar) -21846.02  -1732.44    583.79
                            -1732.44 -18099.71   -588.51
                              583.79   -588.51 -21443.65

     hubbard stress (kbar)      0.00      0.00      0.00
                                0.00      0.00      0.00
                                0.00      0.00      0.00

     DFT-D   stress (kbar)      0.00      0.00      0.00
                                0.00      0.00      0.00
                                0.00      0.00      0.00

     XDM     stress (kbar)      0.00      0.00      0.00
                                0.00      0.00      0.00
                                0.00      0.00      0.00

     dft-nl  stress (kbar)      0.00      0.00      0.00
                                0.00      0.00      0.00
                                0.00      0.00      0.00

     TS-vdW  stress (kbar)      0.00      0.00      0.00
                                0.00      0.00      0.00
                                0.00      0.00      0.00



     init_run     :    291.30s CPU    304.87s WALL (       1 calls)
     electrons    :  22856.62s CPU  23661.49s WALL (       1 calls)
     forces       :    180.68s CPU    182.45s WALL (       1 calls)
     stress       :    811.83s CPU    817.25s WALL (       1 calls)

     Called by init_run:
     wfcinit      :    276.95s CPU    288.77s WALL (       1 calls)
     wfcinit:atom :      3.81s CPU      3.87s WALL (     316 calls)
     wfcinit:wfcr :    260.64s CPU    272.21s WALL (     316 calls)
     potinit      :      5.56s CPU      5.76s WALL (       1 calls)
     hinit0       :      5.86s CPU      6.74s WALL (       1 calls)

     Called by electrons:
     c_bands      :  20296.14s CPU  20944.61s WALL (      31 calls)
     sum_band     :   2425.37s CPU   2557.86s WALL (      31 calls)
     v_of_rho     :     37.75s CPU     39.33s WALL (      32 calls)
     v_h          :      1.78s CPU      1.88s WALL (      32 calls)
     v_xc         :     38.14s CPU     39.68s WALL (      34 calls)
     newd         :     61.05s CPU     82.44s WALL (      32 calls)
     PAW_pot      :     26.26s CPU     26.80s WALL (      32 calls)
     mix_rho      :      9.86s CPU     10.62s WALL (      31 calls)

     Called by c_bands:
     init_us_2    :    267.19s CPU    271.45s WALL (   20540 calls)
     cegterg      :  19789.14s CPU  20431.20s WALL (    9796 calls)

     Called by sum_band:
     sum_band:wei :      0.49s CPU      0.49s WALL (      31 calls)
     sum_band:loo :   2219.19s CPU   2327.50s WALL (      31 calls)
     sum_band:buf :     71.72s CPU     72.60s WALL (    9796 calls)
     sum_band:ini :    128.98s CPU    130.69s WALL (    9796 calls)
     sum_band:cal :   1135.31s CPU   1140.57s WALL (    9796 calls)
     sum_band:bec :      4.10s CPU      4.18s WALL (    9796 calls)
     addusdens    :    200.35s CPU    224.36s WALL (      31 calls)
     addusd:skk   :      1.03s CPU      1.06s WALL (      93 calls)
     addusd:dgemm :     66.05s CPU     85.57s WALL (     186 calls)
     addusd:qvan2 :    131.27s CPU    132.55s WALL (     186 calls)

     Called by *egterg:
     cdiaghg      :    771.08s CPU    783.24s WALL (   36011 calls)
     cegterg:over :   2025.40s CPU   2041.97s WALL (   26215 calls)
     cegterg:upda :   1312.85s CPU   1317.56s WALL (   26215 calls)
     cegterg:last :   2640.65s CPU   2649.79s WALL (   16482 calls)
     h_psi        :   9403.47s CPU   9996.25s WALL (   36327 calls)
     s_psi        :   2644.91s CPU   2653.79s WALL (   36327 calls)
     g_psi        :     31.10s CPU     31.42s WALL (   26215 calls)

     Called by h_psi:
     h_psi:calbec :   2736.66s CPU   2752.06s WALL (   36327 calls)
     vloc_psi     :   3747.66s CPU   4312.51s WALL (   36327 calls)
     add_vuspsi   :   2760.21s CPU   2769.96s WALL (   36327 calls)

     General routines
     calbec       :   4058.93s CPU   4080.56s WALL (   47703 calls)
     fft          :     31.32s CPU     33.99s WALL (     838 calls)
     ffts         :      0.55s CPU      0.62s WALL (     126 calls)
     fftw         :   4301.89s CPU   4928.83s WALL ( 6070338 calls)
     interpolate  :      2.88s CPU      3.07s WALL (      64 calls)

     Parallel routines
     fft_scatt_xy :    373.29s CPU    436.51s WALL ( 6071302 calls)
     fft_scatt_yz :   1300.62s CPU   1534.75s WALL ( 6071302 calls)

     PAW routines
     PAW_pot      :     26.26s CPU     26.80s WALL (      32 calls)

     PWSCF        :      6h42m CPU      6h56m WALL


   This run was terminated on:   1: 0:46  26Dec2022            

=------------------------------------------------------------------------------=
   JOB DONE.
=------------------------------------------------------------------------------=
Note: The following floating-point exceptions are signalling: IEEE_UNDERFLOW_FLAG IEEE_DENORMAL
Note: The following floating-point exceptions are signalling: IEEE_INVALID_FLAG IEEE_DENORMAL
Note: The following floating-point exceptions are signalling: IEEE_DENORMAL
Note: The following floating-point exceptions are signalling: IEEE_DENORMAL
Note: The following floating-point exceptions are signalling: IEEE_DENORMAL
Note: The following floating-point exceptions are signalling: IEEE_DENORMAL
Note: The following floating-point exceptions are signalling: IEEE_DENORMAL
Note: The following floating-point exceptions are signalling: IEEE_DENORMAL
Note: The following floating-point exceptions are signalling: IEEE_DENORMAL
Note: The following floating-point exceptions are signalling: IEEE_DENORMAL
