 # B2 N2
 
           4  atoms
 2 atom types
 
      0.000000000000       2.512428460000  xlo xhi
      0.000000000000       2.175826608231  ylo yhi
      0.000000000000       7.707265000000  zlo zhi
0 0 0 xy xz yz
     -1.256214686084       0.000000000000       0.000000000000  xy xz yz
 
Masses

1 10.81
2 14.007
Atoms # atomic

1 1 -0.000001560270 1.450551797429 1.926816250000
2 1 1.256215334186 0.725274810801 5.780448750000
3 2 -0.000001560270 1.450551797429 5.780448750000
4 2 1.256215334186 0.725274810801 1.926816250000

