
     Program PWSCF v.6.7MaX starts on 28Sep2022 at 21: 7:11 

     This program is part of the open-source Quantum ESPRESSO suite
     for quantum simulation of materials; please cite
         "P. Giannozzi et al., J. Phys.:Condens. Matter 21 395502 (2009);
         "P. Giannozzi et al., J. Phys.:Condens. Matter 29 465901 (2017);
          URL http://www.quantum-espresso.org", 
     in publications or presentations arising from this work. More details at
     http://www.quantum-espresso.org/quote

     Parallel version (MPI), running on    16 processors

     MPI processes distributed on     1 nodes
     R & G space division:  proc/nbgrp/npool/nimage =      16
     Reading input from scale_2dab-00.in

     Current dimensions of program PWSCF are:
     Max number of different atomic species (ntypx) = 10
     Max number of k-points (npk) =  40000
     Max angular momentum in pseudopotentials (lmaxx) =  3
     Message from routine read_pp_mesh:
     mesh size missing, using the one in header

     Subspace diagonalization in iterative solution of the eigenvalue problem:
     a serial algorithm will be used


     Parallelization info
     --------------------
     sticks:   dense  smooth     PW     G-vecs:    dense   smooth      PW
     Min          38      27      8                 2484     1541     251
     Max          39      28     11                 2496     1558     256
     Sum         613     439    139                39853    24761    4047



     bravais-lattice index     =            0
     lattice parameter (alat)  =       4.5104  a.u.
     unit-cell volume          =     256.5986 (a.u.)^3
     number of atoms/cell      =            4
     number of atomic types    =            2
     number of electrons       =        16.00
     number of Kohn-Sham states=           12
     kinetic-energy cutoff     =      80.0000  Ry
     charge density cutoff     =     440.0000  Ry
     scf convergence threshold =      2.0E-10
     mixing beta               =       0.4000
     number of iterations used =            8  plain     mixing
     Exchange-correlation= PBE
                           (   1   4   3   4   0   0   0)

     celldm(1)=   4.510361  celldm(2)=   0.000000  celldm(3)=   0.000000
     celldm(4)=   0.000000  celldm(5)=   0.000000  celldm(6)=   0.000000

     crystal axes: (cart. coord. in units of alat)
               a(1) = (   1.000000   0.000000   0.000000 )  
               a(2) = (  -0.500000   0.866025   0.000000 )  
               a(3) = (   0.000000   0.000000   3.229162 )  

     reciprocal axes: (cart. coord. in units 2 pi/alat)
               b(1) = (  1.000000  0.577350 -0.000000 )  
               b(2) = (  0.000000  1.154701  0.000000 )  
               b(3) = (  0.000000 -0.000000  0.309678 )  


     PseudoPot. # 1 for B  read from file:
     /opt/QEpot/SSSP_precision_pseudos/B_pbe_v1.01.uspp.F.UPF
     MD5 check sum: d081ebb89d0c768e112975f650467a00
     Pseudo is Ultrasoft + core correction, Zval =  3.0
     Generated by new atomic code, or converted to UPF format
     Using radial grid of  781 points,  4 beta functions with: 
                l(1) =   0
                l(2) =   0
                l(3) =   1
                l(4) =   1
     Q(r) pseudized with  8 coefficients,  rinner =    1.100   1.100   1.100


     PseudoPot. # 2 for N  read from file:
     /opt/QEpot/SSSP_precision_pseudos/N.oncvpsp.upf
     MD5 check sum: 563d65bfb082928f0c9eb97172f6c357
     Pseudo is Norm-conserving + core correction, Zval =  5.0
     Generated using ONCVPSP code by D. R. Hamann
     Using radial grid of 1058 points,  4 beta functions with: 
                l(1) =   0
                l(2) =   0
                l(3) =   1
                l(4) =   1

     atomic species   valence    mass     pseudopotential
        B              3.00    10.81000     B ( 1.00)
        N              5.00    14.00700     N ( 1.00)

     No symmetry found


                                    s                        frac. trans.

      isym =  1     identity                                     

 cryst.   s( 1) = (     1          0          0      )
                  (     0          1          0      )
                  (     0          0          1      )

 cart.    s( 1) = (  1.0000000  0.0000000  0.0000000 )
                  (  0.0000000  1.0000000  0.0000000 )
                  (  0.0000000  0.0000000  1.0000000 )


   Cartesian axes

     site n.     atom                  positions (alat units)
         1           B   tau(   1) = (   0.0021554   0.5786013   0.8049177  )
         2           B   tau(   2) = (   0.5021564   0.2899256   2.4194989  )
         3           N   tau(   3) = (   0.0021554   0.5786013   2.4194989  )
         4           N   tau(   4) = (   0.5021564   0.2899256   0.8049177  )

   Crystallographic axes

     site n.     atom                  positions (cryst. coord.)
         1           B   tau(   1) = (  0.3362110  0.6681113  0.2492652  )
         2           B   tau(   2) = (  0.6695450  0.3347773  0.7492652  )
         3           N   tau(   3) = (  0.3362110  0.6681113  0.7492652  )
         4           N   tau(   4) = (  0.6695450  0.3347773  0.2492652  )

     number of k points=   152  Marzari-Vanderbilt smearing, width (Ry)=  0.0220
                       cart. coord. in units 2pi/alat
        k(    1) = (   0.0000000   0.0000000   0.0000000), wk =   0.0066667
        k(    2) = (   0.0000000   0.0000000   0.1032259), wk =   0.0133333
        k(    3) = (   0.0000000   0.1154701   0.0000000), wk =   0.0133333
        k(    4) = (   0.0000000   0.1154701   0.1032259), wk =   0.0133333
        k(    5) = (   0.0000000   0.2309401   0.0000000), wk =   0.0133333
        k(    6) = (   0.0000000   0.2309401   0.1032259), wk =   0.0133333
        k(    7) = (   0.0000000   0.3464102   0.0000000), wk =   0.0133333
        k(    8) = (   0.0000000   0.3464102   0.1032259), wk =   0.0133333
        k(    9) = (   0.0000000   0.4618802   0.0000000), wk =   0.0133333
        k(   10) = (   0.0000000   0.4618802   0.1032259), wk =   0.0133333
        k(   11) = (   0.0000000  -0.5773503   0.0000000), wk =   0.0066667
        k(   12) = (   0.0000000  -0.5773503   0.1032259), wk =   0.0133333
        k(   13) = (   0.1000000   0.1732051   0.0000000), wk =   0.0133333
        k(   14) = (   0.1000000   0.1732051   0.1032259), wk =   0.0133333
        k(   15) = (   0.1000000   0.2886751   0.0000000), wk =   0.0133333
        k(   16) = (   0.1000000   0.2886751   0.1032259), wk =   0.0133333
        k(   17) = (   0.1000000   0.4041452   0.0000000), wk =   0.0133333
        k(   18) = (   0.1000000   0.4041452   0.1032259), wk =   0.0133333
        k(   19) = (   0.1000000   0.5196152   0.0000000), wk =   0.0133333
        k(   20) = (   0.1000000   0.5196152   0.1032259), wk =   0.0133333
        k(   21) = (   0.2000000   0.3464102   0.0000000), wk =   0.0133333
        k(   22) = (   0.2000000   0.3464102   0.1032259), wk =   0.0133333
        k(   23) = (   0.2000000   0.4618802   0.0000000), wk =   0.0133333
        k(   24) = (   0.2000000   0.4618802   0.1032259), wk =   0.0133333
        k(   25) = (   0.2000000   0.5773503   0.0000000), wk =   0.0133333
        k(   26) = (   0.2000000   0.5773503   0.1032259), wk =   0.0133333
        k(   27) = (   0.3000000   0.5196152   0.0000000), wk =   0.0133333
        k(   28) = (   0.3000000   0.5196152   0.1032259), wk =   0.0133333
        k(   29) = (  -0.1000000   0.0577350   0.0000000), wk =   0.0133333
        k(   30) = (   0.1000000   0.0577350   0.0000000), wk =   0.0133333
        k(   31) = (   0.0000000  -0.1154701   0.1032259), wk =   0.0133333
        k(   32) = (  -0.1000000   0.0577350   0.1032259), wk =   0.0133333
        k(   33) = (   0.1000000   0.0577350   0.1032259), wk =   0.0133333
        k(   34) = (  -0.1000000  -0.0577350   0.1032259), wk =   0.0133333
        k(   35) = (   0.1000000  -0.0577350   0.1032259), wk =   0.0133333
        k(   36) = (  -0.2000000   0.1154701   0.0000000), wk =   0.0133333
        k(   37) = (   0.2000000   0.1154701   0.0000000), wk =   0.0133333
        k(   38) = (   0.0000000  -0.2309401   0.1032259), wk =   0.0133333
        k(   39) = (  -0.2000000   0.1154701   0.1032259), wk =   0.0133333
        k(   40) = (   0.2000000   0.1154701   0.1032259), wk =   0.0133333
        k(   41) = (  -0.2000000  -0.1154701   0.1032259), wk =   0.0133333
        k(   42) = (   0.2000000  -0.1154701   0.1032259), wk =   0.0133333
        k(   43) = (  -0.3000000   0.1732051   0.0000000), wk =   0.0133333
        k(   44) = (   0.3000000   0.1732051   0.0000000), wk =   0.0133333
        k(   45) = (   0.0000000  -0.3464102   0.1032259), wk =   0.0133333
        k(   46) = (  -0.3000000   0.1732051   0.1032259), wk =   0.0133333
        k(   47) = (   0.3000000   0.1732051   0.1032259), wk =   0.0133333
        k(   48) = (  -0.3000000  -0.1732051   0.1032259), wk =   0.0133333
        k(   49) = (   0.3000000  -0.1732051   0.1032259), wk =   0.0133333
        k(   50) = (  -0.4000000   0.2309401   0.0000000), wk =   0.0133333
        k(   51) = (   0.4000000   0.2309401   0.0000000), wk =   0.0133333
        k(   52) = (   0.0000000  -0.4618802   0.1032259), wk =   0.0133333
        k(   53) = (  -0.4000000   0.2309401   0.1032259), wk =   0.0133333
        k(   54) = (   0.4000000   0.2309401   0.1032259), wk =   0.0133333
        k(   55) = (  -0.4000000  -0.2309401   0.1032259), wk =   0.0133333
        k(   56) = (   0.4000000  -0.2309401   0.1032259), wk =   0.0133333
        k(   57) = (   0.5000000  -0.2886751   0.0000000), wk =   0.0066667
        k(   58) = (  -0.5000000  -0.2886751   0.0000000), wk =   0.0066667
        k(   59) = (   0.5000000  -0.2886751   0.1032259), wk =   0.0133333
        k(   60) = (  -0.5000000  -0.2886751   0.1032259), wk =   0.0133333
        k(   61) = (  -0.1000000   0.1732051   0.0000000), wk =   0.0133333
        k(   62) = (   0.2000000   0.0000000   0.0000000), wk =   0.0133333
        k(   63) = (  -0.1000000  -0.1732051   0.1032259), wk =   0.0133333
        k(   64) = (  -0.1000000   0.1732051  -0.1032259), wk =   0.0133333
        k(   65) = (   0.1000000  -0.1732051  -0.1032259), wk =   0.0133333
        k(   66) = (   0.2000000   0.0000000   0.1032259), wk =   0.0133333
        k(   67) = (  -0.2000000   0.0000000   0.1032259), wk =   0.0133333
        k(   68) = (  -0.1000000   0.2886751   0.0000000), wk =   0.0133333
        k(   69) = (  -0.2000000   0.2309401   0.0000000), wk =   0.0133333
        k(   70) = (   0.3000000   0.0577350   0.0000000), wk =   0.0133333
        k(   71) = (  -0.2000000  -0.2309401   0.0000000), wk =   0.0133333
        k(   72) = (   0.3000000  -0.0577350   0.0000000), wk =   0.0133333
        k(   73) = (  -0.1000000  -0.2886751   0.1032259), wk =   0.0133333
        k(   74) = (  -0.1000000   0.2886751  -0.1032259), wk =   0.0133333
        k(   75) = (   0.1000000  -0.2886751  -0.1032259), wk =   0.0133333
        k(   76) = (  -0.2000000   0.2309401   0.1032259), wk =   0.0133333
        k(   77) = (   0.3000000   0.0577350   0.1032259), wk =   0.0133333
        k(   78) = (  -0.3000000  -0.0577350   0.1032259), wk =   0.0133333
        k(   79) = (   0.2000000  -0.2309401   0.1032259), wk =   0.0133333
        k(   80) = (  -0.2000000  -0.2309401  -0.1032259), wk =   0.0133333
        k(   81) = (   0.3000000  -0.0577350  -0.1032259), wk =   0.0133333
        k(   82) = (  -0.3000000   0.0577350  -0.1032259), wk =   0.0133333
        k(   83) = (   0.2000000   0.2309401  -0.1032259), wk =   0.0133333
        k(   84) = (  -0.1000000   0.4041452   0.0000000), wk =   0.0133333
        k(   85) = (  -0.3000000   0.2886751   0.0000000), wk =   0.0133333
        k(   86) = (   0.4000000   0.1154701   0.0000000), wk =   0.0133333
        k(   87) = (  -0.3000000  -0.2886751   0.0000000), wk =   0.0133333
        k(   88) = (   0.4000000  -0.1154701   0.0000000), wk =   0.0133333
        k(   89) = (  -0.1000000  -0.4041452   0.1032259), wk =   0.0133333
        k(   90) = (  -0.1000000   0.4041452  -0.1032259), wk =   0.0133333
        k(   91) = (   0.1000000  -0.4041452  -0.1032259), wk =   0.0133333
        k(   92) = (  -0.3000000   0.2886751   0.1032259), wk =   0.0133333
        k(   93) = (   0.4000000   0.1154701   0.1032259), wk =   0.0133333
        k(   94) = (  -0.4000000  -0.1154701   0.1032259), wk =   0.0133333
        k(   95) = (   0.3000000  -0.2886751   0.1032259), wk =   0.0133333
        k(   96) = (  -0.3000000  -0.2886751  -0.1032259), wk =   0.0133333
        k(   97) = (   0.4000000  -0.1154701  -0.1032259), wk =   0.0133333
        k(   98) = (  -0.4000000   0.1154701  -0.1032259), wk =   0.0133333
        k(   99) = (   0.3000000   0.2886751  -0.1032259), wk =   0.0133333
        k(  100) = (  -0.1000000   0.5196152   0.0000000), wk =   0.0133333
        k(  101) = (  -0.4000000   0.3464102   0.0000000), wk =   0.0133333
        k(  102) = (   0.5000000   0.1732051   0.0000000), wk =   0.0133333
        k(  103) = (  -0.4000000  -0.3464102   0.0000000), wk =   0.0133333
        k(  104) = (   0.5000000  -0.1732051   0.0000000), wk =   0.0133333
        k(  105) = (  -0.1000000  -0.5196152   0.1032259), wk =   0.0133333
        k(  106) = (  -0.1000000   0.5196152  -0.1032259), wk =   0.0133333
        k(  107) = (   0.1000000  -0.5196152  -0.1032259), wk =   0.0133333
        k(  108) = (  -0.4000000   0.3464102   0.1032259), wk =   0.0133333
        k(  109) = (   0.5000000   0.1732051   0.1032259), wk =   0.0133333
        k(  110) = (  -0.5000000  -0.1732051   0.1032259), wk =   0.0133333
        k(  111) = (   0.4000000  -0.3464102   0.1032259), wk =   0.0133333
        k(  112) = (  -0.4000000  -0.3464102  -0.1032259), wk =   0.0133333
        k(  113) = (   0.5000000  -0.1732051  -0.1032259), wk =   0.0133333
        k(  114) = (  -0.5000000   0.1732051  -0.1032259), wk =   0.0133333
        k(  115) = (   0.4000000   0.3464102  -0.1032259), wk =   0.0133333
        k(  116) = (  -0.2000000   0.3464102   0.0000000), wk =   0.0133333
        k(  117) = (   0.4000000   0.0000000   0.0000000), wk =   0.0133333
        k(  118) = (  -0.2000000  -0.3464102   0.1032259), wk =   0.0133333
        k(  119) = (  -0.2000000   0.3464102  -0.1032259), wk =   0.0133333
        k(  120) = (   0.2000000  -0.3464102  -0.1032259), wk =   0.0133333
        k(  121) = (   0.4000000   0.0000000   0.1032259), wk =   0.0133333
        k(  122) = (  -0.4000000   0.0000000   0.1032259), wk =   0.0133333
        k(  123) = (  -0.2000000   0.4618802   0.0000000), wk =   0.0133333
        k(  124) = (  -0.3000000   0.4041452   0.0000000), wk =   0.0133333
        k(  125) = (   0.5000000   0.0577350   0.0000000), wk =   0.0133333
        k(  126) = (  -0.3000000  -0.4041452   0.0000000), wk =   0.0133333
        k(  127) = (   0.5000000  -0.0577350   0.0000000), wk =   0.0133333
        k(  128) = (  -0.2000000  -0.4618802   0.1032259), wk =   0.0133333
        k(  129) = (  -0.2000000   0.4618802  -0.1032259), wk =   0.0133333
        k(  130) = (   0.2000000  -0.4618802  -0.1032259), wk =   0.0133333
        k(  131) = (  -0.3000000   0.4041452   0.1032259), wk =   0.0133333
        k(  132) = (   0.5000000   0.0577350   0.1032259), wk =   0.0133333
        k(  133) = (  -0.5000000  -0.0577350   0.1032259), wk =   0.0133333
        k(  134) = (   0.3000000  -0.4041452   0.1032259), wk =   0.0133333
        k(  135) = (  -0.3000000  -0.4041452  -0.1032259), wk =   0.0133333
        k(  136) = (   0.5000000  -0.0577350  -0.1032259), wk =   0.0133333
        k(  137) = (  -0.5000000   0.0577350  -0.1032259), wk =   0.0133333
        k(  138) = (   0.3000000   0.4041452  -0.1032259), wk =   0.0133333
        k(  139) = (  -0.4000000   0.4618802   0.0000000), wk =   0.0133333
        k(  140) = (   0.6000000   0.1154701   0.0000000), wk =   0.0133333
        k(  141) = (  -0.2000000  -0.5773503   0.1032259), wk =   0.0133333
        k(  142) = (  -0.4000000   0.4618802   0.1032259), wk =   0.0133333
        k(  143) = (   0.6000000   0.1154701   0.1032259), wk =   0.0133333
        k(  144) = (  -0.6000000  -0.1154701   0.1032259), wk =   0.0133333
        k(  145) = (   0.4000000  -0.4618802   0.1032259), wk =   0.0133333
        k(  146) = (  -0.3000000   0.5196152   0.0000000), wk =   0.0133333
        k(  147) = (   0.6000000  -0.0000000   0.0000000), wk =   0.0133333
        k(  148) = (  -0.3000000  -0.5196152   0.1032259), wk =   0.0133333
        k(  149) = (  -0.3000000   0.5196152  -0.1032259), wk =   0.0133333
        k(  150) = (   0.3000000  -0.5196152  -0.1032259), wk =   0.0133333
        k(  151) = (   0.6000000  -0.0000000   0.1032259), wk =   0.0133333
        k(  152) = (  -0.6000000   0.0000000   0.1032259), wk =   0.0133333

                       cryst. coord.
        k(    1) = (   0.0000000   0.0000000   0.0000000), wk =   0.0066667
        k(    2) = (   0.0000000   0.0000000   0.3333333), wk =   0.0133333
        k(    3) = (   0.0000000   0.1000000   0.0000000), wk =   0.0133333
        k(    4) = (   0.0000000   0.1000000   0.3333333), wk =   0.0133333
        k(    5) = (   0.0000000   0.2000000   0.0000000), wk =   0.0133333
        k(    6) = (   0.0000000   0.2000000   0.3333333), wk =   0.0133333
        k(    7) = (   0.0000000   0.3000000   0.0000000), wk =   0.0133333
        k(    8) = (   0.0000000   0.3000000   0.3333333), wk =   0.0133333
        k(    9) = (   0.0000000   0.4000000   0.0000000), wk =   0.0133333
        k(   10) = (   0.0000000   0.4000000   0.3333333), wk =   0.0133333
        k(   11) = (   0.0000000  -0.5000000   0.0000000), wk =   0.0066667
        k(   12) = (   0.0000000  -0.5000000   0.3333333), wk =   0.0133333
        k(   13) = (   0.1000000   0.1000000   0.0000000), wk =   0.0133333
        k(   14) = (   0.1000000   0.1000000   0.3333333), wk =   0.0133333
        k(   15) = (   0.1000000   0.2000000   0.0000000), wk =   0.0133333
        k(   16) = (   0.1000000   0.2000000   0.3333333), wk =   0.0133333
        k(   17) = (   0.1000000   0.3000000   0.0000000), wk =   0.0133333
        k(   18) = (   0.1000000   0.3000000   0.3333333), wk =   0.0133333
        k(   19) = (   0.1000000   0.4000000   0.0000000), wk =   0.0133333
        k(   20) = (   0.1000000   0.4000000   0.3333333), wk =   0.0133333
        k(   21) = (   0.2000000   0.2000000   0.0000000), wk =   0.0133333
        k(   22) = (   0.2000000   0.2000000   0.3333333), wk =   0.0133333
        k(   23) = (   0.2000000   0.3000000   0.0000000), wk =   0.0133333
        k(   24) = (   0.2000000   0.3000000   0.3333333), wk =   0.0133333
        k(   25) = (   0.2000000   0.4000000   0.0000000), wk =   0.0133333
        k(   26) = (   0.2000000   0.4000000   0.3333333), wk =   0.0133333
        k(   27) = (   0.3000000   0.3000000   0.0000000), wk =   0.0133333
        k(   28) = (   0.3000000   0.3000000   0.3333333), wk =   0.0133333
        k(   29) = (  -0.1000000   0.1000000   0.0000000), wk =   0.0133333
        k(   30) = (   0.1000000  -0.0000000   0.0000000), wk =   0.0133333
        k(   31) = (   0.0000000  -0.1000000   0.3333333), wk =   0.0133333
        k(   32) = (  -0.1000000   0.1000000   0.3333333), wk =   0.0133333
        k(   33) = (   0.1000000  -0.0000000   0.3333333), wk =   0.0133333
        k(   34) = (  -0.1000000   0.0000000   0.3333333), wk =   0.0133333
        k(   35) = (   0.1000000  -0.1000000   0.3333333), wk =   0.0133333
        k(   36) = (  -0.2000000   0.2000000   0.0000000), wk =   0.0133333
        k(   37) = (   0.2000000  -0.0000000   0.0000000), wk =   0.0133333
        k(   38) = (   0.0000000  -0.2000000   0.3333333), wk =   0.0133333
        k(   39) = (  -0.2000000   0.2000000   0.3333333), wk =   0.0133333
        k(   40) = (   0.2000000  -0.0000000   0.3333333), wk =   0.0133333
        k(   41) = (  -0.2000000   0.0000000   0.3333333), wk =   0.0133333
        k(   42) = (   0.2000000  -0.2000000   0.3333333), wk =   0.0133333
        k(   43) = (  -0.3000000   0.3000000   0.0000000), wk =   0.0133333
        k(   44) = (   0.3000000  -0.0000000   0.0000000), wk =   0.0133333
        k(   45) = (   0.0000000  -0.3000000   0.3333333), wk =   0.0133333
        k(   46) = (  -0.3000000   0.3000000   0.3333333), wk =   0.0133333
        k(   47) = (   0.3000000  -0.0000000   0.3333333), wk =   0.0133333
        k(   48) = (  -0.3000000   0.0000000   0.3333333), wk =   0.0133333
        k(   49) = (   0.3000000  -0.3000000   0.3333333), wk =   0.0133333
        k(   50) = (  -0.4000000   0.4000000   0.0000000), wk =   0.0133333
        k(   51) = (   0.4000000  -0.0000000   0.0000000), wk =   0.0133333
        k(   52) = (   0.0000000  -0.4000000   0.3333333), wk =   0.0133333
        k(   53) = (  -0.4000000   0.4000000   0.3333333), wk =   0.0133333
        k(   54) = (   0.4000000  -0.0000000   0.3333333), wk =   0.0133333
        k(   55) = (  -0.4000000   0.0000000   0.3333333), wk =   0.0133333
        k(   56) = (   0.4000000  -0.4000000   0.3333333), wk =   0.0133333
        k(   57) = (   0.5000000  -0.5000000   0.0000000), wk =   0.0066667
        k(   58) = (  -0.5000000   0.0000000   0.0000000), wk =   0.0066667
        k(   59) = (   0.5000000  -0.5000000   0.3333333), wk =   0.0133333
        k(   60) = (  -0.5000000   0.0000000   0.3333333), wk =   0.0133333
        k(   61) = (  -0.1000000   0.2000000   0.0000000), wk =   0.0133333
        k(   62) = (   0.2000000  -0.1000000   0.0000000), wk =   0.0133333
        k(   63) = (  -0.1000000  -0.1000000   0.3333333), wk =   0.0133333
        k(   64) = (  -0.1000000   0.2000000  -0.3333333), wk =   0.0133333
        k(   65) = (   0.1000000  -0.2000000  -0.3333333), wk =   0.0133333
        k(   66) = (   0.2000000  -0.1000000   0.3333333), wk =   0.0133333
        k(   67) = (  -0.2000000   0.1000000   0.3333333), wk =   0.0133333
        k(   68) = (  -0.1000000   0.3000000   0.0000000), wk =   0.0133333
        k(   69) = (  -0.2000000   0.3000000   0.0000000), wk =   0.0133333
        k(   70) = (   0.3000000  -0.1000000   0.0000000), wk =   0.0133333
        k(   71) = (  -0.2000000  -0.1000000   0.0000000), wk =   0.0133333
        k(   72) = (   0.3000000  -0.2000000   0.0000000), wk =   0.0133333
        k(   73) = (  -0.1000000  -0.2000000   0.3333333), wk =   0.0133333
        k(   74) = (  -0.1000000   0.3000000  -0.3333333), wk =   0.0133333
        k(   75) = (   0.1000000  -0.3000000  -0.3333333), wk =   0.0133333
        k(   76) = (  -0.2000000   0.3000000   0.3333333), wk =   0.0133333
        k(   77) = (   0.3000000  -0.1000000   0.3333333), wk =   0.0133333
        k(   78) = (  -0.3000000   0.1000000   0.3333333), wk =   0.0133333
        k(   79) = (   0.2000000  -0.3000000   0.3333333), wk =   0.0133333
        k(   80) = (  -0.2000000  -0.1000000  -0.3333333), wk =   0.0133333
        k(   81) = (   0.3000000  -0.2000000  -0.3333333), wk =   0.0133333
        k(   82) = (  -0.3000000   0.2000000  -0.3333333), wk =   0.0133333
        k(   83) = (   0.2000000   0.1000000  -0.3333333), wk =   0.0133333
        k(   84) = (  -0.1000000   0.4000000   0.0000000), wk =   0.0133333
        k(   85) = (  -0.3000000   0.4000000   0.0000000), wk =   0.0133333
        k(   86) = (   0.4000000  -0.1000000   0.0000000), wk =   0.0133333
        k(   87) = (  -0.3000000  -0.1000000   0.0000000), wk =   0.0133333
        k(   88) = (   0.4000000  -0.3000000   0.0000000), wk =   0.0133333
        k(   89) = (  -0.1000000  -0.3000000   0.3333333), wk =   0.0133333
        k(   90) = (  -0.1000000   0.4000000  -0.3333333), wk =   0.0133333
        k(   91) = (   0.1000000  -0.4000000  -0.3333333), wk =   0.0133333
        k(   92) = (  -0.3000000   0.4000000   0.3333333), wk =   0.0133333
        k(   93) = (   0.4000000  -0.1000000   0.3333333), wk =   0.0133333
        k(   94) = (  -0.4000000   0.1000000   0.3333333), wk =   0.0133333
        k(   95) = (   0.3000000  -0.4000000   0.3333333), wk =   0.0133333
        k(   96) = (  -0.3000000  -0.1000000  -0.3333333), wk =   0.0133333
        k(   97) = (   0.4000000  -0.3000000  -0.3333333), wk =   0.0133333
        k(   98) = (  -0.4000000   0.3000000  -0.3333333), wk =   0.0133333
        k(   99) = (   0.3000000   0.1000000  -0.3333333), wk =   0.0133333
        k(  100) = (  -0.1000000   0.5000000   0.0000000), wk =   0.0133333
        k(  101) = (  -0.4000000   0.5000000   0.0000000), wk =   0.0133333
        k(  102) = (   0.5000000  -0.1000000   0.0000000), wk =   0.0133333
        k(  103) = (  -0.4000000  -0.1000000   0.0000000), wk =   0.0133333
        k(  104) = (   0.5000000  -0.4000000   0.0000000), wk =   0.0133333
        k(  105) = (  -0.1000000  -0.4000000   0.3333333), wk =   0.0133333
        k(  106) = (  -0.1000000   0.5000000  -0.3333333), wk =   0.0133333
        k(  107) = (   0.1000000  -0.5000000  -0.3333333), wk =   0.0133333
        k(  108) = (  -0.4000000   0.5000000   0.3333333), wk =   0.0133333
        k(  109) = (   0.5000000  -0.1000000   0.3333333), wk =   0.0133333
        k(  110) = (  -0.5000000   0.1000000   0.3333333), wk =   0.0133333
        k(  111) = (   0.4000000  -0.5000000   0.3333333), wk =   0.0133333
        k(  112) = (  -0.4000000  -0.1000000  -0.3333333), wk =   0.0133333
        k(  113) = (   0.5000000  -0.4000000  -0.3333333), wk =   0.0133333
        k(  114) = (  -0.5000000   0.4000000  -0.3333333), wk =   0.0133333
        k(  115) = (   0.4000000   0.1000000  -0.3333333), wk =   0.0133333
        k(  116) = (  -0.2000000   0.4000000   0.0000000), wk =   0.0133333
        k(  117) = (   0.4000000  -0.2000000   0.0000000), wk =   0.0133333
        k(  118) = (  -0.2000000  -0.2000000   0.3333333), wk =   0.0133333
        k(  119) = (  -0.2000000   0.4000000  -0.3333333), wk =   0.0133333
        k(  120) = (   0.2000000  -0.4000000  -0.3333333), wk =   0.0133333
        k(  121) = (   0.4000000  -0.2000000   0.3333333), wk =   0.0133333
        k(  122) = (  -0.4000000   0.2000000   0.3333333), wk =   0.0133333
        k(  123) = (  -0.2000000   0.5000000   0.0000000), wk =   0.0133333
        k(  124) = (  -0.3000000   0.5000000   0.0000000), wk =   0.0133333
        k(  125) = (   0.5000000  -0.2000000   0.0000000), wk =   0.0133333
        k(  126) = (  -0.3000000  -0.2000000   0.0000000), wk =   0.0133333
        k(  127) = (   0.5000000  -0.3000000   0.0000000), wk =   0.0133333
        k(  128) = (  -0.2000000  -0.3000000   0.3333333), wk =   0.0133333
        k(  129) = (  -0.2000000   0.5000000  -0.3333333), wk =   0.0133333
        k(  130) = (   0.2000000  -0.5000000  -0.3333333), wk =   0.0133333
        k(  131) = (  -0.3000000   0.5000000   0.3333333), wk =   0.0133333
        k(  132) = (   0.5000000  -0.2000000   0.3333333), wk =   0.0133333
        k(  133) = (  -0.5000000   0.2000000   0.3333333), wk =   0.0133333
        k(  134) = (   0.3000000  -0.5000000   0.3333333), wk =   0.0133333
        k(  135) = (  -0.3000000  -0.2000000  -0.3333333), wk =   0.0133333
        k(  136) = (   0.5000000  -0.3000000  -0.3333333), wk =   0.0133333
        k(  137) = (  -0.5000000   0.3000000  -0.3333333), wk =   0.0133333
        k(  138) = (   0.3000000   0.2000000  -0.3333333), wk =   0.0133333
        k(  139) = (  -0.4000000   0.6000000   0.0000000), wk =   0.0133333
        k(  140) = (   0.6000000  -0.2000000   0.0000000), wk =   0.0133333
        k(  141) = (  -0.2000000  -0.4000000   0.3333333), wk =   0.0133333
        k(  142) = (  -0.4000000   0.6000000   0.3333333), wk =   0.0133333
        k(  143) = (   0.6000000  -0.2000000   0.3333333), wk =   0.0133333
        k(  144) = (  -0.6000000   0.2000000   0.3333333), wk =   0.0133333
        k(  145) = (   0.4000000  -0.6000000   0.3333333), wk =   0.0133333
        k(  146) = (  -0.3000000   0.6000000   0.0000000), wk =   0.0133333
        k(  147) = (   0.6000000  -0.3000000   0.0000000), wk =   0.0133333
        k(  148) = (  -0.3000000  -0.3000000   0.3333333), wk =   0.0133333
        k(  149) = (  -0.3000000   0.6000000  -0.3333333), wk =   0.0133333
        k(  150) = (   0.3000000  -0.6000000  -0.3333333), wk =   0.0133333
        k(  151) = (   0.6000000  -0.3000000   0.3333333), wk =   0.0133333
        k(  152) = (  -0.6000000   0.3000000   0.3333333), wk =   0.0133333

     Dense  grid:    39853 G-vectors     FFT dimensions: (  32,  32, 100)

     Smooth grid:    24761 G-vectors     FFT dimensions: (  25,  25,  90)

     Dynamical RAM for                 wfc:       0.04 MB

     Dynamical RAM for     wfc (w. buffer):       5.41 MB

     Dynamical RAM for           str. fact:       0.08 MB

     Dynamical RAM for           local pot:       0.00 MB

     Dynamical RAM for          nlocal pot:       0.09 MB

     Dynamical RAM for                qrad:       0.96 MB

     Dynamical RAM for          rho,v,vnew:       0.28 MB

     Dynamical RAM for               rhoin:       0.09 MB

     Dynamical RAM for            rho*nmix:       0.61 MB

     Dynamical RAM for           G-vectors:       0.15 MB

     Dynamical RAM for          h,s,v(r/c):       0.03 MB

     Dynamical RAM for          <psi|beta>:       0.01 MB

     Dynamical RAM for                 psi:       0.07 MB

     Dynamical RAM for                hpsi:       0.07 MB

     Dynamical RAM for                spsi:       0.07 MB

     Dynamical RAM for      wfcinit/wfcrot:       0.10 MB

     Dynamical RAM for           addusdens:       1.71 MB

     Dynamical RAM for          addusforce:       1.81 MB

     Dynamical RAM for         addusstress:       1.90 MB

     Estimated static dynamical RAM per process >       8.06 MB

     Estimated max dynamical RAM per process >       9.97 MB

     Estimated total dynamical RAM >     159.46 MB

     Check: negative core charge=   -0.000010

     Initial potential from superposition of free atoms

     starting charge   15.99942, renormalised to   16.00000
     Starting wfcs are   16 randomized atomic wfcs

     total cpu time spent up to now is        0.8 secs

     Self-consistent Calculation

     iteration #  1     ecut=    80.00 Ry     beta= 0.40
     Davidson diagonalization with overlap
     ethr =  1.00E-02,  avg # of iterations =  3.2

     total cpu time spent up to now is        2.0 secs

     total energy              =     -54.73620615 Ry
     estimated scf accuracy    <       0.91920896 Ry

     iteration #  2     ecut=    80.00 Ry     beta= 0.40
     Davidson diagonalization with overlap
     ethr =  5.75E-03,  avg # of iterations =  1.7

     total cpu time spent up to now is        3.0 secs

     total energy              =     -54.82064953 Ry
     estimated scf accuracy    <       0.07964205 Ry

     iteration #  3     ecut=    80.00 Ry     beta= 0.40
     Davidson diagonalization with overlap
     ethr =  4.98E-04,  avg # of iterations =  5.3

     total cpu time spent up to now is        4.2 secs

     total energy              =     -54.82746871 Ry
     estimated scf accuracy    <       0.01605668 Ry

     iteration #  4     ecut=    80.00 Ry     beta= 0.40
     Davidson diagonalization with overlap
     ethr =  1.00E-04,  avg # of iterations =  4.4

     total cpu time spent up to now is        5.3 secs

     total energy              =     -54.83056739 Ry
     estimated scf accuracy    <       0.00060028 Ry

     iteration #  5     ecut=    80.00 Ry     beta= 0.40
     Davidson diagonalization with overlap
     ethr =  3.75E-06,  avg # of iterations =  8.2

     total cpu time spent up to now is        6.8 secs

     total energy              =     -54.83075494 Ry
     estimated scf accuracy    <       0.00022714 Ry

     iteration #  6     ecut=    80.00 Ry     beta= 0.40
     Davidson diagonalization with overlap
     ethr =  1.42E-06,  avg # of iterations =  2.1

     total cpu time spent up to now is        7.7 secs

     total energy              =     -54.83078168 Ry
     estimated scf accuracy    <       0.00001405 Ry

     iteration #  7     ecut=    80.00 Ry     beta= 0.40
     Davidson diagonalization with overlap
     ethr =  8.78E-08,  avg # of iterations =  4.0

     total cpu time spent up to now is        8.8 secs

     total energy              =     -54.83078870 Ry
     estimated scf accuracy    <       0.00000038 Ry

     iteration #  8     ecut=    80.00 Ry     beta= 0.40
     Davidson diagonalization with overlap
     ethr =  2.38E-09,  avg # of iterations =  4.2

     total cpu time spent up to now is       10.0 secs

     total energy              =     -54.83078904 Ry
     estimated scf accuracy    <       0.00000006 Ry

     iteration #  9     ecut=    80.00 Ry     beta= 0.40
     Davidson diagonalization with overlap
     ethr =  3.54E-10,  avg # of iterations =  2.5

     total cpu time spent up to now is       11.0 secs

     total energy              =     -54.83078906 Ry
     estimated scf accuracy    <          4.8E-09 Ry

     iteration # 10     ecut=    80.00 Ry     beta= 0.40
     Davidson diagonalization with overlap
     ethr =  3.00E-11,  avg # of iterations =  2.9

     total cpu time spent up to now is       11.9 secs

     total energy              =     -54.83078906 Ry
     estimated scf accuracy    <          1.7E-09 Ry

     iteration # 11     ecut=    80.00 Ry     beta= 0.40
     Davidson diagonalization with overlap
     ethr =  1.05E-11,  avg # of iterations =  2.3

     total cpu time spent up to now is       12.8 secs

     End of self-consistent calculation

          k = 0.0000 0.0000 0.0000 (  3089 PWs)   bands (ev):

   -14.4867 -14.4069  -2.3805  -1.4853   2.8989   2.8990   2.9041   2.9041
     8.5397  12.6150  16.3707  17.0380

     occupation numbers 
     1.0000   1.0000   1.0000   1.0000   1.0000   1.0000   1.0000   1.0000
     0.0000   0.0000   0.0000   0.0000

          k = 0.0000 0.0000 0.1032 (  3108 PWs)   bands (ev):

   -14.4670 -14.4271  -2.1782  -1.7334   2.9002   2.9003   2.9028   2.9029
     9.3139  11.1917  17.0436  17.0476

     occupation numbers 
     1.0000   1.0000   1.0000   1.0000   1.0000   1.0000   1.0000   1.0000
     0.0000   0.0000   0.0000   0.0000

          k = 0.0000 0.1155 0.0000 (  3133 PWs)   bands (ev):

   -14.2733 -14.1956  -2.0835  -1.2017   2.0629   2.0653   2.4783   2.4845
     8.8970  12.7842  16.5271  16.9779

     occupation numbers 
     1.0000   1.0000   1.0000   1.0000   1.0000   1.0000   1.0000   1.0000
     0.0000   0.0000   0.0000   0.0000

          k = 0.0000 0.1155 0.1032 (  3118 PWs)   bands (ev):

   -14.2541 -14.2153  -1.8840  -1.4459   2.0645   2.0656   2.4799   2.4830
     9.6524  11.4667  16.8539  16.9569

     occupation numbers 
     1.0000   1.0000   1.0000   1.0000   1.0000   1.0000   1.0000   1.0000
     0.0000   0.0000   0.0000   0.0000

          k = 0.0000 0.2309 0.0000 (  3119 PWs)   bands (ev):

   -13.6480 -13.5768  -1.2091  -0.3712   0.0440   0.0476   1.5381   1.5462
     9.8932  13.0571  15.7617  16.2569

     occupation numbers 
     1.0000   1.0000   1.0000   1.0000   1.0000   1.0000   1.0000   1.0000
     0.0000   0.0000   0.0000   0.0000

          k = 0.0000 0.2309 0.1032 (  3129 PWs)   bands (ev):

   -13.6304 -13.5949  -1.0205  -0.6059   0.0486   0.0509   1.5401   1.5441
    10.5826  12.1367  15.8627  16.1260

     occupation numbers 
     1.0000   1.0000   1.0000   1.0000   1.0000   1.0000   1.0000   1.0000
     0.0000   0.0000   0.0000   0.0000

          k = 0.0000 0.3464 0.0000 (  3109 PWs)   bands (ev):

   -12.6729 -12.6131  -2.3479  -2.3388   0.1733   0.5872   0.5967   0.9233
    11.4565  12.3320  13.1222  15.9756

     occupation numbers 
     1.0000   1.0000   1.0000   1.0000   1.0000   1.0000   1.0000   1.0000
     0.0000   0.0000   0.0000   0.0000

          k = 0.0000 0.3464 0.1032 (  3110 PWs)   bands (ev):

   -12.6581 -12.6282  -2.3464  -2.3418   0.3474   0.5895   0.5943   0.7208
    11.7823  12.2039  13.5782  15.0773

     occupation numbers 
     1.0000   1.0000   1.0000   1.0000   1.0000   1.0000   1.0000   1.0000
     0.0000   0.0000   0.0000   0.0000

          k = 0.0000 0.4619 0.0000 (  3109 PWs)   bands (ev):

   -11.5490 -11.5084  -4.4527  -4.4379  -0.0703  -0.0601   1.8306   2.4107
    10.1707  10.7272  13.4669  15.8114

     occupation numbers 
     1.0000   1.0000   1.0000   1.0000   1.0000   1.0000   1.0000   1.0000
     0.0000   0.0000   0.0000   0.0000

          k = 0.0000 0.4619 0.1032 (  3091 PWs)   bands (ev):

   -11.5389 -11.5186  -4.4493  -4.4419  -0.0678  -0.0626   1.9687   2.2583
    10.2547  10.5228  14.2048  15.4682

     occupation numbers 
     1.0000   1.0000   1.0000   1.0000   1.0000   1.0000   1.0000   1.0000
     0.0000   0.0000   0.0000   0.0000

          k = 0.0000-0.5774 0.0000 (  3106 PWs)   bands (ev):

   -10.9280 -10.9140  -5.4071  -5.3961  -0.3016  -0.2911   2.8302   3.2021
     8.8878   9.5785  14.8952  15.7589

     occupation numbers 
     1.0000   1.0000   1.0000   1.0000   1.0000   1.0000   1.0000   1.0000
     0.0000   0.0000   0.0000   0.0000

          k = 0.0000-0.5774 0.1032 (  3082 PWs)   bands (ev):

   -10.9245 -10.9175  -5.4047  -5.3992  -0.2990  -0.2937   2.9232   3.1095
     9.0192   9.3613  15.1958  15.6302

     occupation numbers 
     1.0000   1.0000   1.0000   1.0000   1.0000   1.0000   1.0000   1.0000
     0.0000   0.0000   0.0000   0.0000

          k = 0.1000 0.1732 0.0000 (  3115 PWs)   bands (ev):

   -13.8534 -13.7801  -1.4973  -0.6441   0.7689   0.7751   1.6625   1.6704
     9.5770  13.0202  16.4052  17.0915

     occupation numbers 
     1.0000   1.0000   1.0000   1.0000   1.0000   1.0000   1.0000   1.0000
     0.0000   0.0000   0.0000   0.0000

          k = 0.1000 0.1732 0.1032 (  3126 PWs)   bands (ev):

   -13.8354 -13.7987  -1.3044  -0.8807   0.7726   0.7752   1.6647   1.6686
    10.2922  11.9520  16.4833  16.7415

     occupation numbers 
     1.0000   1.0000   1.0000   1.0000   1.0000   1.0000   1.0000   1.0000
     0.0000   0.0000   0.0000   0.0000

          k = 0.1000 0.2887 0.0000 (  3102 PWs)   bands (ev):

   -13.0484 -12.9838  -1.2558  -1.2503  -0.3637   0.4246   0.5392   0.5489
    10.8758  12.8765  14.2020  16.9088

     occupation numbers 
     1.0000   1.0000   1.0000   1.0000   1.0000   1.0000   1.0000   1.0000
     0.0000   0.0000   0.0000   0.0000

          k = 0.1000 0.2887 0.1032 (  3120 PWs)   bands (ev):

   -13.0324 -13.0002  -1.2563  -1.2535  -0.1811   0.2099   0.5431   0.5476
    11.4414  12.4728  14.4632  15.5146

     occupation numbers 
     1.0000   1.0000   1.0000   1.0000   1.0000   1.0000   1.0000   1.0000
     0.0000   0.0000   0.0000   0.0000

          k = 0.1000 0.4041 0.0000 (  3096 PWs)   bands (ev):

   -11.9698 -11.9198  -3.4473  -3.4350  -0.3411  -0.3307   1.1909   1.8551
    11.3071  11.7205  12.7278  16.7265

     occupation numbers 
     1.0000   1.0000   1.0000   1.0000   1.0000   1.0000   1.0000   1.0000
     0.0000   0.0000   0.0000   0.0000

          k = 0.1000 0.4041 0.1032 (  3104 PWs)   bands (ev):

   -11.9574 -11.9324  -3.4446  -3.4385  -0.3387  -0.3335   1.3471   1.6782
    11.3112  11.4721  13.7123  15.6281

     occupation numbers 
     1.0000   1.0000   1.0000   1.0000   1.0000   1.0000   1.0000   1.0000
     0.0000   0.0000   0.0000   0.0000

          k = 0.1000 0.5196 0.0000 (  3097 PWs)   bands (ev):

   -10.9890 -10.9641  -5.0533  -5.0390  -0.8091  -0.7982   2.7036   3.1376
     9.3291   9.8903  14.9003  16.6271

     occupation numbers 
     1.0000   1.0000   1.0000   1.0000   1.0000   1.0000   1.0000   1.0000
     0.0000   0.0000   0.0000   0.0000

          k = 0.1000 0.5196 0.1032 (  3090 PWs)   bands (ev):

   -10.9828 -10.9703  -5.0500  -5.0428  -0.8064  -0.8010   2.8104   3.0275
     9.4316   9.7095  15.4562  16.3787

     occupation numbers 
     1.0000   1.0000   1.0000   1.0000   1.0000   1.0000   1.0000   1.0000
     0.0000   0.0000   0.0000   0.0000

          k = 0.2000 0.3464 0.0000 (  3105 PWs)   bands (ev):

   -12.1226 -12.0694  -2.7270  -2.7201  -0.8771  -0.8652   0.9614   1.6521
    11.8865  12.2298  12.4917  17.3167

     occupation numbers 
     1.0000   1.0000   1.0000   1.0000   1.0000   1.0000   1.0000   1.0000
     0.0000   0.0000   0.0000   0.0000

          k = 0.2000 0.3464 0.1032 (  3109 PWs)   bands (ev):

   -12.1094 -12.0828  -2.7257  -2.7222  -0.8745  -0.8687   1.1235   1.4677
    11.8459  11.8747  13.6442  15.6594

     occupation numbers 
     1.0000   1.0000   1.0000   1.0000   1.0000   1.0000   1.0000   1.0000
     0.0000   0.0000   0.0000   0.0000

          k = 0.2000 0.4619 0.0000 (  3084 PWs)   bands (ev):

   -11.0784 -11.0437  -4.2577  -4.2425  -1.8315  -1.8209   2.5247   3.0313
    10.1822  10.3960  14.6419  17.2531

     occupation numbers 
     1.0000   1.0000   1.0000   1.0000   1.0000   1.0000   1.0000   1.0000
     0.0000   0.0000   0.0000   0.0000

          k = 0.2000 0.4619 0.1032 (  3086 PWs)   bands (ev):

   -11.0697 -11.0524  -4.2541  -4.2465  -1.8291  -1.8238   2.6473   2.9005
    10.2007  10.3075  15.3264  16.6920

     occupation numbers 
     1.0000   1.0000   1.0000   1.0000   1.0000   1.0000   1.0000   1.0000
     0.0000   0.0000   0.0000   0.0000

          k = 0.2000 0.5774 0.0000 (  3082 PWs)   bands (ev):

   -10.5208 -10.5090  -5.0219  -5.0022  -2.1362  -2.1255   3.4545   3.7312
     9.1568   9.5118  16.7507  17.0726

     occupation numbers 
     1.0000   1.0000   1.0000   1.0000   1.0000   1.0000   1.0000   1.0000
     0.0000   0.0000   0.0000   0.0000

          k = 0.2000 0.5774 0.1032 (  3075 PWs)   bands (ev):

   -10.5179 -10.5120  -5.0172  -5.0073  -2.1337  -2.1284   3.5263   3.6650
     9.2166   9.3940  17.0568  17.4793

     occupation numbers 
     1.0000   1.0000   1.0000   1.0000   1.0000   1.0000   1.0000   1.0000
     0.0000   0.0000   0.0000   0.0000

          k = 0.3000 0.5196 0.0000 (  3080 PWs)   bands (ev):

   -10.3501 -10.3367  -4.6825  -4.6536  -2.9894  -2.9863   3.7275   3.9548
     9.3372   9.4257  16.1190  16.9694

     occupation numbers 
     1.0000   1.0000   1.0000   1.0000   1.0000   1.0000   1.0000   1.0000
     0.0000   0.0000   0.0000   0.0000

          k = 0.3000 0.5196 0.1032 (  3081 PWs)   bands (ev):

   -10.3467 -10.3400  -4.6753  -4.6609  -2.9889  -2.9874   3.7880   3.9020
     9.3326   9.3780  16.4470  17.0872

     occupation numbers 
     1.0000   1.0000   1.0000   1.0000   1.0000   1.0000   1.0000   1.0000
     0.0000   0.0000   0.0000   0.0000

          k =-0.1000 0.0577 0.0000 (  3133 PWs)   bands (ev):

   -14.2733 -14.1956  -2.0835  -1.2017   2.0630   2.0654   2.4782   2.4845
     8.8970  12.7842  16.5271  16.9778

     occupation numbers 
     1.0000   1.0000   1.0000   1.0000   1.0000   1.0000   1.0000   1.0000
     0.0000   0.0000   0.0000   0.0000

          k = 0.1000 0.0577 0.0000 (  3133 PWs)   bands (ev):

   -14.2733 -14.1956  -2.0835  -1.2017   2.0629   2.0653   2.4783   2.4845
     8.8970  12.7842  16.5272  16.9784

     occupation numbers 
     1.0000   1.0000   1.0000   1.0000   1.0000   1.0000   1.0000   1.0000
     0.0000   0.0000   0.0000   0.0000

          k = 0.0000-0.1155 0.1032 (  3118 PWs)   bands (ev):

   -14.2541 -14.2153  -1.8840  -1.4459   2.0645   2.0656   2.4799   2.4830
     9.6524  11.4667  16.8536  16.9565

     occupation numbers 
     1.0000   1.0000   1.0000   1.0000   1.0000   1.0000   1.0000   1.0000
     0.0000   0.0000   0.0000   0.0000

          k =-0.1000 0.0577 0.1032 (  3118 PWs)   bands (ev):

   -14.2541 -14.2153  -1.8840  -1.4459   2.0646   2.0656   2.4798   2.4829
     9.6524  11.4667  16.8535  16.9566

     occupation numbers 
     1.0000   1.0000   1.0000   1.0000   1.0000   1.0000   1.0000   1.0000
     0.0000   0.0000   0.0000   0.0000

          k = 0.1000 0.0577 0.1032 (  3118 PWs)   bands (ev):

   -14.2541 -14.2153  -1.8840  -1.4459   2.0645   2.0656   2.4799   2.4830
     9.6524  11.4667  16.8536  16.9565

     occupation numbers 
     1.0000   1.0000   1.0000   1.0000   1.0000   1.0000   1.0000   1.0000
     0.0000   0.0000   0.0000   0.0000

          k =-0.1000-0.0577 0.1032 (  3118 PWs)   bands (ev):

   -14.2541 -14.2153  -1.8840  -1.4459   2.0645   2.0656   2.4799   2.4830
     9.6524  11.4667  16.8536  16.9567

     occupation numbers 
     1.0000   1.0000   1.0000   1.0000   1.0000   1.0000   1.0000   1.0000
     0.0000   0.0000   0.0000   0.0000

          k = 0.1000-0.0577 0.1032 (  3118 PWs)   bands (ev):

   -14.2541 -14.2153  -1.8840  -1.4459   2.0646   2.0656   2.4798   2.4829
     9.6524  11.4667  16.8536  16.9565

     occupation numbers 
     1.0000   1.0000   1.0000   1.0000   1.0000   1.0000   1.0000   1.0000
     0.0000   0.0000   0.0000   0.0000

          k =-0.2000 0.1155 0.0000 (  3119 PWs)   bands (ev):

   -13.6480 -13.5768  -1.2091  -0.3712   0.0440   0.0476   1.5380   1.5461
     9.8932  13.0571  15.7618  16.2570

     occupation numbers 
     1.0000   1.0000   1.0000   1.0000   1.0000   1.0000   1.0000   1.0000
     0.0000   0.0000   0.0000   0.0000

          k = 0.2000 0.1155 0.0000 (  3119 PWs)   bands (ev):

   -13.6480 -13.5768  -1.2091  -0.3712   0.0440   0.0476   1.5381   1.5462
     9.8932  13.0571  15.7617  16.2569

     occupation numbers 
     1.0000   1.0000   1.0000   1.0000   1.0000   1.0000   1.0000   1.0000
     0.0000   0.0000   0.0000   0.0000

          k = 0.0000-0.2309 0.1032 (  3129 PWs)   bands (ev):

   -13.6304 -13.5949  -1.0205  -0.6059   0.0486   0.0509   1.5401   1.5441
    10.5826  12.1367  15.8626  16.1257

     occupation numbers 
     1.0000   1.0000   1.0000   1.0000   1.0000   1.0000   1.0000   1.0000
     0.0000   0.0000   0.0000   0.0000

          k =-0.2000 0.1155 0.1032 (  3129 PWs)   bands (ev):

   -13.6304 -13.5949  -1.0205  -0.6059   0.0486   0.0510   1.5400   1.5441
    10.5826  12.1367  15.8627  16.1260

     occupation numbers 
     1.0000   1.0000   1.0000   1.0000   1.0000   1.0000   1.0000   1.0000
     0.0000   0.0000   0.0000   0.0000

          k = 0.2000 0.1155 0.1032 (  3129 PWs)   bands (ev):

   -13.6304 -13.5949  -1.0205  -0.6059   0.0486   0.0509   1.5401   1.5441
    10.5826  12.1367  15.8627  16.1259

     occupation numbers 
     1.0000   1.0000   1.0000   1.0000   1.0000   1.0000   1.0000   1.0000
     0.0000   0.0000   0.0000   0.0000

          k =-0.2000-0.1155 0.1032 (  3129 PWs)   bands (ev):

   -13.6304 -13.5949  -1.0205  -0.6059   0.0486   0.0509   1.5401   1.5441
    10.5826  12.1367  15.8626  16.1257

     occupation numbers 
     1.0000   1.0000   1.0000   1.0000   1.0000   1.0000   1.0000   1.0000
     0.0000   0.0000   0.0000   0.0000

          k = 0.2000-0.1155 0.1032 (  3129 PWs)   bands (ev):

   -13.6304 -13.5949  -1.0205  -0.6059   0.0486   0.0510   1.5400   1.5441
    10.5826  12.1367  15.8627  16.1257

     occupation numbers 
     1.0000   1.0000   1.0000   1.0000   1.0000   1.0000   1.0000   1.0000
     0.0000   0.0000   0.0000   0.0000

          k =-0.3000 0.1732 0.0000 (  3109 PWs)   bands (ev):

   -12.6729 -12.6131  -2.3479  -2.3388   0.1733   0.5871   0.5966   0.9233
    11.4565  12.3320  13.1223  15.9756

     occupation numbers 
     1.0000   1.0000   1.0000   1.0000   1.0000   1.0000   1.0000   1.0000
     0.0000   0.0000   0.0000   0.0000

          k = 0.3000 0.1732 0.0000 (  3109 PWs)   bands (ev):

   -12.6729 -12.6131  -2.3479  -2.3388   0.1733   0.5872   0.5967   0.9233
    11.4565  12.3320  13.1222  15.9756

     occupation numbers 
     1.0000   1.0000   1.0000   1.0000   1.0000   1.0000   1.0000   1.0000
     0.0000   0.0000   0.0000   0.0000

          k = 0.0000-0.3464 0.1032 (  3110 PWs)   bands (ev):

   -12.6581 -12.6282  -2.3464  -2.3418   0.3474   0.5895   0.5943   0.7208
    11.7823  12.2039  13.5782  15.0774

     occupation numbers 
     1.0000   1.0000   1.0000   1.0000   1.0000   1.0000   1.0000   1.0000
     0.0000   0.0000   0.0000   0.0000

          k =-0.3000 0.1732 0.1032 (  3110 PWs)   bands (ev):

   -12.6581 -12.6282  -2.3464  -2.3418   0.3474   0.5895   0.5943   0.7208
    11.7823  12.2039  13.5783  15.0774

     occupation numbers 
     1.0000   1.0000   1.0000   1.0000   1.0000   1.0000   1.0000   1.0000
     0.0000   0.0000   0.0000   0.0000

          k = 0.3000 0.1732 0.1032 (  3110 PWs)   bands (ev):

   -12.6581 -12.6282  -2.3464  -2.3418   0.3474   0.5895   0.5943   0.7208
    11.7823  12.2039  13.5782  15.0773

     occupation numbers 
     1.0000   1.0000   1.0000   1.0000   1.0000   1.0000   1.0000   1.0000
     0.0000   0.0000   0.0000   0.0000

          k =-0.3000-0.1732 0.1032 (  3110 PWs)   bands (ev):

   -12.6581 -12.6282  -2.3464  -2.3418   0.3474   0.5895   0.5943   0.7208
    11.7823  12.2039  13.5782  15.0774

     occupation numbers 
     1.0000   1.0000   1.0000   1.0000   1.0000   1.0000   1.0000   1.0000
     0.0000   0.0000   0.0000   0.0000

          k = 0.3000-0.1732 0.1032 (  3110 PWs)   bands (ev):

   -12.6581 -12.6282  -2.3464  -2.3418   0.3474   0.5895   0.5943   0.7208
    11.7823  12.2039  13.5783  15.0774

     occupation numbers 
     1.0000   1.0000   1.0000   1.0000   1.0000   1.0000   1.0000   1.0000
     0.0000   0.0000   0.0000   0.0000

          k =-0.4000 0.2309 0.0000 (  3109 PWs)   bands (ev):

   -11.5490 -11.5084  -4.4527  -4.4379  -0.0704  -0.0601   1.8306   2.4107
    10.1707  10.7273  13.4669  15.8114

     occupation numbers 
     1.0000   1.0000   1.0000   1.0000   1.0000   1.0000   1.0000   1.0000
     0.0000   0.0000   0.0000   0.0000

          k = 0.4000 0.2309 0.0000 (  3109 PWs)   bands (ev):

   -11.5490 -11.5084  -4.4527  -4.4379  -0.0703  -0.0601   1.8306   2.4107
    10.1707  10.7272  13.4669  15.8114

     occupation numbers 
     1.0000   1.0000   1.0000   1.0000   1.0000   1.0000   1.0000   1.0000
     0.0000   0.0000   0.0000   0.0000

          k = 0.0000-0.4619 0.1032 (  3091 PWs)   bands (ev):

   -11.5389 -11.5186  -4.4493  -4.4419  -0.0678  -0.0626   1.9687   2.2583
    10.2547  10.5228  14.2048  15.4682

     occupation numbers 
     1.0000   1.0000   1.0000   1.0000   1.0000   1.0000   1.0000   1.0000
     0.0000   0.0000   0.0000   0.0000

          k =-0.4000 0.2309 0.1032 (  3091 PWs)   bands (ev):

   -11.5389 -11.5186  -4.4493  -4.4419  -0.0678  -0.0627   1.9687   2.2583
    10.2547  10.5228  14.2048  15.4682

     occupation numbers 
     1.0000   1.0000   1.0000   1.0000   1.0000   1.0000   1.0000   1.0000
     0.0000   0.0000   0.0000   0.0000

          k = 0.4000 0.2309 0.1032 (  3091 PWs)   bands (ev):

   -11.5389 -11.5186  -4.4493  -4.4419  -0.0678  -0.0626   1.9687   2.2583
    10.2547  10.5228  14.2048  15.4682

     occupation numbers 
     1.0000   1.0000   1.0000   1.0000   1.0000   1.0000   1.0000   1.0000
     0.0000   0.0000   0.0000   0.0000

          k =-0.4000-0.2309 0.1032 (  3091 PWs)   bands (ev):

   -11.5389 -11.5186  -4.4493  -4.4419  -0.0678  -0.0626   1.9687   2.2583
    10.2547  10.5228  14.2048  15.4682

     occupation numbers 
     1.0000   1.0000   1.0000   1.0000   1.0000   1.0000   1.0000   1.0000
     0.0000   0.0000   0.0000   0.0000

          k = 0.4000-0.2309 0.1032 (  3091 PWs)   bands (ev):

   -11.5389 -11.5186  -4.4493  -4.4419  -0.0678  -0.0627   1.9687   2.2583
    10.2547  10.5228  14.2048  15.4682

     occupation numbers 
     1.0000   1.0000   1.0000   1.0000   1.0000   1.0000   1.0000   1.0000
     0.0000   0.0000   0.0000   0.0000

          k = 0.5000-0.2887 0.0000 (  3106 PWs)   bands (ev):

   -10.9280 -10.9140  -5.4071  -5.3961  -0.3016  -0.2911   2.8302   3.2021
     8.8878   9.5786  14.8952  15.7590

     occupation numbers 
     1.0000   1.0000   1.0000   1.0000   1.0000   1.0000   1.0000   1.0000
     0.0000   0.0000   0.0000   0.0000

          k =-0.5000-0.2887 0.0000 (  3106 PWs)   bands (ev):

   -10.9280 -10.9140  -5.4071  -5.3961  -0.3016  -0.2911   2.8302   3.2021
     8.8878   9.5785  14.8952  15.7590

     occupation numbers 
     1.0000   1.0000   1.0000   1.0000   1.0000   1.0000   1.0000   1.0000
     0.0000   0.0000   0.0000   0.0000

          k = 0.5000-0.2887 0.1032 (  3082 PWs)   bands (ev):

   -10.9245 -10.9175  -5.4047  -5.3992  -0.2990  -0.2938   2.9232   3.1094
     9.0192   9.3613  15.1958  15.6302

     occupation numbers 
     1.0000   1.0000   1.0000   1.0000   1.0000   1.0000   1.0000   1.0000
     0.0000   0.0000   0.0000   0.0000

          k =-0.5000-0.2887 0.1032 (  3082 PWs)   bands (ev):

   -10.9245 -10.9175  -5.4047  -5.3992  -0.2990  -0.2937   2.9232   3.1095
     9.0192   9.3613  15.1958  15.6302

     occupation numbers 
     1.0000   1.0000   1.0000   1.0000   1.0000   1.0000   1.0000   1.0000
     0.0000   0.0000   0.0000   0.0000

          k =-0.1000 0.1732 0.0000 (  3115 PWs)   bands (ev):

   -13.8534 -13.7801  -1.4973  -0.6441   0.7689   0.7752   1.6625   1.6704
     9.5770  13.0202  16.4052  17.0923

     occupation numbers 
     1.0000   1.0000   1.0000   1.0000   1.0000   1.0000   1.0000   1.0000
     0.0000   0.0000   0.0000   0.0000

          k = 0.2000 0.0000 0.0000 (  3115 PWs)   bands (ev):

   -13.8534 -13.7801  -1.4973  -0.6441   0.7689   0.7752   1.6625   1.6704
     9.5770  13.0202  16.4052  17.0929

     occupation numbers 
     1.0000   1.0000   1.0000   1.0000   1.0000   1.0000   1.0000   1.0000
     0.0000   0.0000   0.0000   0.0000

          k =-0.1000-0.1732 0.1032 (  3126 PWs)   bands (ev):

   -13.8354 -13.7987  -1.3044  -0.8807   0.7726   0.7752   1.6647   1.6686
    10.2922  11.9520  16.4833  16.7414

     occupation numbers 
     1.0000   1.0000   1.0000   1.0000   1.0000   1.0000   1.0000   1.0000
     0.0000   0.0000   0.0000   0.0000

          k =-0.1000 0.1732-0.1032 (  3126 PWs)   bands (ev):

   -13.8354 -13.7987  -1.3044  -0.8807   0.7727   0.7752   1.6646   1.6686
    10.2922  11.9520  16.4834  16.7413

     occupation numbers 
     1.0000   1.0000   1.0000   1.0000   1.0000   1.0000   1.0000   1.0000
     0.0000   0.0000   0.0000   0.0000

          k = 0.1000-0.1732-0.1032 (  3126 PWs)   bands (ev):

   -13.8354 -13.7987  -1.3044  -0.8807   0.7727   0.7752   1.6646   1.6686
    10.2922  11.9520  16.4832  16.7415

     occupation numbers 
     1.0000   1.0000   1.0000   1.0000   1.0000   1.0000   1.0000   1.0000
     0.0000   0.0000   0.0000   0.0000

          k = 0.2000 0.0000 0.1032 (  3126 PWs)   bands (ev):

   -13.8354 -13.7987  -1.3044  -0.8807   0.7727   0.7752   1.6646   1.6686
    10.2922  11.9520  16.4833  16.7414

     occupation numbers 
     1.0000   1.0000   1.0000   1.0000   1.0000   1.0000   1.0000   1.0000
     0.0000   0.0000   0.0000   0.0000

          k =-0.2000 0.0000 0.1032 (  3126 PWs)   bands (ev):

   -13.8354 -13.7987  -1.3044  -0.8807   0.7727   0.7752   1.6646   1.6686
    10.2922  11.9520  16.4832  16.7414

     occupation numbers 
     1.0000   1.0000   1.0000   1.0000   1.0000   1.0000   1.0000   1.0000
     0.0000   0.0000   0.0000   0.0000

          k =-0.1000 0.2887 0.0000 (  3102 PWs)   bands (ev):

   -13.0484 -12.9838  -1.2558  -1.2503  -0.3637   0.4246   0.5392   0.5489
    10.8758  12.8765  14.2020  16.9088

     occupation numbers 
     1.0000   1.0000   1.0000   1.0000   1.0000   1.0000   1.0000   1.0000
     0.0000   0.0000   0.0000   0.0000

          k =-0.2000 0.2309 0.0000 (  3102 PWs)   bands (ev):

   -13.0484 -12.9838  -1.2558  -1.2502  -0.3637   0.4246   0.5392   0.5489
    10.8758  12.8765  14.2020  16.9088

     occupation numbers 
     1.0000   1.0000   1.0000   1.0000   1.0000   1.0000   1.0000   1.0000
     0.0000   0.0000   0.0000   0.0000

          k = 0.3000 0.0577 0.0000 (  3102 PWs)   bands (ev):

   -13.0484 -12.9838  -1.2558  -1.2503  -0.3637   0.4246   0.5392   0.5489
    10.8758  12.8765  14.2020  16.9088

     occupation numbers 
     1.0000   1.0000   1.0000   1.0000   1.0000   1.0000   1.0000   1.0000
     0.0000   0.0000   0.0000   0.0000

          k =-0.2000-0.2309 0.0000 (  3102 PWs)   bands (ev):

   -13.0484 -12.9838  -1.2558  -1.2503  -0.3637   0.4246   0.5392   0.5489
    10.8758  12.8765  14.2020  16.9088

     occupation numbers 
     1.0000   1.0000   1.0000   1.0000   1.0000   1.0000   1.0000   1.0000
     0.0000   0.0000   0.0000   0.0000

          k = 0.3000-0.0577 0.0000 (  3102 PWs)   bands (ev):

   -13.0484 -12.9838  -1.2558  -1.2502  -0.3637   0.4246   0.5392   0.5489
    10.8758  12.8765  14.2020  16.9088

     occupation numbers 
     1.0000   1.0000   1.0000   1.0000   1.0000   1.0000   1.0000   1.0000
     0.0000   0.0000   0.0000   0.0000

          k =-0.1000-0.2887 0.1032 (  3120 PWs)   bands (ev):

   -13.0324 -13.0002  -1.2563  -1.2535  -0.1811   0.2099   0.5431   0.5476
    11.4414  12.4728  14.4632  15.5146

     occupation numbers 
     1.0000   1.0000   1.0000   1.0000   1.0000   1.0000   1.0000   1.0000
     0.0000   0.0000   0.0000   0.0000

          k =-0.1000 0.2887-0.1032 (  3120 PWs)   bands (ev):

   -13.0324 -13.0001  -1.2562  -1.2535  -0.1811   0.2099   0.5431   0.5476
    11.4414  12.4728  14.4632  15.5146

     occupation numbers 
     1.0000   1.0000   1.0000   1.0000   1.0000   1.0000   1.0000   1.0000
     0.0000   0.0000   0.0000   0.0000

          k = 0.1000-0.2887-0.1032 (  3120 PWs)   bands (ev):

   -13.0324 -13.0001  -1.2562  -1.2535  -0.1811   0.2099   0.5431   0.5476
    11.4414  12.4728  14.4632  15.5146

     occupation numbers 
     1.0000   1.0000   1.0000   1.0000   1.0000   1.0000   1.0000   1.0000
     0.0000   0.0000   0.0000   0.0000

          k =-0.2000 0.2309 0.1032 (  3120 PWs)   bands (ev):

   -13.0324 -13.0001  -1.2562  -1.2535  -0.1811   0.2099   0.5430   0.5476
    11.4414  12.4728  14.4632  15.5146

     occupation numbers 
     1.0000   1.0000   1.0000   1.0000   1.0000   1.0000   1.0000   1.0000
     0.0000   0.0000   0.0000   0.0000

          k = 0.3000 0.0577 0.1032 (  3120 PWs)   bands (ev):

   -13.0324 -13.0001  -1.2562  -1.2535  -0.1811   0.2099   0.5431   0.5476
    11.4414  12.4728  14.4632  15.5146

     occupation numbers 
     1.0000   1.0000   1.0000   1.0000   1.0000   1.0000   1.0000   1.0000
     0.0000   0.0000   0.0000   0.0000

          k =-0.3000-0.0577 0.1032 (  3120 PWs)   bands (ev):

   -13.0324 -13.0001  -1.2562  -1.2535  -0.1811   0.2099   0.5431   0.5476
    11.4414  12.4728  14.4632  15.5146

     occupation numbers 
     1.0000   1.0000   1.0000   1.0000   1.0000   1.0000   1.0000   1.0000
     0.0000   0.0000   0.0000   0.0000

          k = 0.2000-0.2309 0.1032 (  3120 PWs)   bands (ev):

   -13.0324 -13.0001  -1.2562  -1.2535  -0.1811   0.2099   0.5430   0.5476
    11.4414  12.4728  14.4632  15.5146

     occupation numbers 
     1.0000   1.0000   1.0000   1.0000   1.0000   1.0000   1.0000   1.0000
     0.0000   0.0000   0.0000   0.0000

          k =-0.2000-0.2309-0.1032 (  3120 PWs)   bands (ev):

   -13.0324 -13.0002  -1.2563  -1.2535  -0.1811   0.2099   0.5431   0.5476
    11.4414  12.4728  14.4632  15.5146

     occupation numbers 
     1.0000   1.0000   1.0000   1.0000   1.0000   1.0000   1.0000   1.0000
     0.0000   0.0000   0.0000   0.0000

          k = 0.3000-0.0577-0.1032 (  3120 PWs)   bands (ev):

   -13.0324 -13.0001  -1.2562  -1.2535  -0.1811   0.2099   0.5431   0.5476
    11.4414  12.4728  14.4632  15.5146

     occupation numbers 
     1.0000   1.0000   1.0000   1.0000   1.0000   1.0000   1.0000   1.0000
     0.0000   0.0000   0.0000   0.0000

          k =-0.3000 0.0577-0.1032 (  3120 PWs)   bands (ev):

   -13.0324 -13.0001  -1.2562  -1.2535  -0.1811   0.2099   0.5431   0.5476
    11.4414  12.4728  14.4632  15.5146

     occupation numbers 
     1.0000   1.0000   1.0000   1.0000   1.0000   1.0000   1.0000   1.0000
     0.0000   0.0000   0.0000   0.0000

          k = 0.2000 0.2309-0.1032 (  3120 PWs)   bands (ev):

   -13.0324 -13.0002  -1.2563  -1.2535  -0.1811   0.2099   0.5431   0.5476
    11.4414  12.4728  14.4632  15.5146

     occupation numbers 
     1.0000   1.0000   1.0000   1.0000   1.0000   1.0000   1.0000   1.0000
     0.0000   0.0000   0.0000   0.0000

          k =-0.1000 0.4041 0.0000 (  3096 PWs)   bands (ev):

   -11.9698 -11.9198  -3.4473  -3.4350  -0.3411  -0.3307   1.1909   1.8551
    11.3071  11.7206  12.7278  16.7266

     occupation numbers 
     1.0000   1.0000   1.0000   1.0000   1.0000   1.0000   1.0000   1.0000
     0.0000   0.0000   0.0000   0.0000

          k =-0.3000 0.2887 0.0000 (  3096 PWs)   bands (ev):

   -11.9698 -11.9198  -3.4473  -3.4350  -0.3411  -0.3307   1.1909   1.8551
    11.3071  11.7206  12.7278  16.7265

     occupation numbers 
     1.0000   1.0000   1.0000   1.0000   1.0000   1.0000   1.0000   1.0000
     0.0000   0.0000   0.0000   0.0000

          k = 0.4000 0.1155 0.0000 (  3096 PWs)   bands (ev):

   -11.9698 -11.9198  -3.4473  -3.4350  -0.3411  -0.3307   1.1909   1.8551
    11.3071  11.7206  12.7278  16.7266

     occupation numbers 
     1.0000   1.0000   1.0000   1.0000   1.0000   1.0000   1.0000   1.0000
     0.0000   0.0000   0.0000   0.0000

          k =-0.3000-0.2887 0.0000 (  3096 PWs)   bands (ev):

   -11.9698 -11.9198  -3.4473  -3.4350  -0.3411  -0.3307   1.1909   1.8551
    11.3071  11.7205  12.7278  16.7267

     occupation numbers 
     1.0000   1.0000   1.0000   1.0000   1.0000   1.0000   1.0000   1.0000
     0.0000   0.0000   0.0000   0.0000

          k = 0.4000-0.1155 0.0000 (  3096 PWs)   bands (ev):

   -11.9698 -11.9198  -3.4473  -3.4350  -0.3411  -0.3307   1.1909   1.8551
    11.3071  11.7206  12.7278  16.7265

     occupation numbers 
     1.0000   1.0000   1.0000   1.0000   1.0000   1.0000   1.0000   1.0000
     0.0000   0.0000   0.0000   0.0000

          k =-0.1000-0.4041 0.1032 (  3104 PWs)   bands (ev):

   -11.9574 -11.9324  -3.4446  -3.4385  -0.3387  -0.3335   1.3471   1.6782
    11.3112  11.4721  13.7123  15.6281

     occupation numbers 
     1.0000   1.0000   1.0000   1.0000   1.0000   1.0000   1.0000   1.0000
     0.0000   0.0000   0.0000   0.0000

          k =-0.1000 0.4041-0.1032 (  3104 PWs)   bands (ev):

   -11.9574 -11.9324  -3.4446  -3.4385  -0.3387  -0.3335   1.3471   1.6782
    11.3112  11.4721  13.7123  15.6281

     occupation numbers 
     1.0000   1.0000   1.0000   1.0000   1.0000   1.0000   1.0000   1.0000
     0.0000   0.0000   0.0000   0.0000

          k = 0.1000-0.4041-0.1032 (  3104 PWs)   bands (ev):

   -11.9574 -11.9324  -3.4446  -3.4385  -0.3387  -0.3335   1.3471   1.6782
    11.3112  11.4721  13.7123  15.6281

     occupation numbers 
     1.0000   1.0000   1.0000   1.0000   1.0000   1.0000   1.0000   1.0000
     0.0000   0.0000   0.0000   0.0000

          k =-0.3000 0.2887 0.1032 (  3104 PWs)   bands (ev):

   -11.9574 -11.9324  -3.4446  -3.4384  -0.3388  -0.3336   1.3471   1.6782
    11.3112  11.4721  13.7123  15.6281

     occupation numbers 
     1.0000   1.0000   1.0000   1.0000   1.0000   1.0000   1.0000   1.0000
     0.0000   0.0000   0.0000   0.0000

          k = 0.4000 0.1155 0.1032 (  3104 PWs)   bands (ev):

   -11.9574 -11.9324  -3.4446  -3.4385  -0.3387  -0.3335   1.3471   1.6782
    11.3112  11.4721  13.7123  15.6281

     occupation numbers 
     1.0000   1.0000   1.0000   1.0000   1.0000   1.0000   1.0000   1.0000
     0.0000   0.0000   0.0000   0.0000

          k =-0.4000-0.1155 0.1032 (  3104 PWs)   bands (ev):

   -11.9574 -11.9324  -3.4446  -3.4385  -0.3387  -0.3335   1.3471   1.6782
    11.3112  11.4721  13.7123  15.6281

     occupation numbers 
     1.0000   1.0000   1.0000   1.0000   1.0000   1.0000   1.0000   1.0000
     0.0000   0.0000   0.0000   0.0000

          k = 0.3000-0.2887 0.1032 (  3104 PWs)   bands (ev):

   -11.9574 -11.9324  -3.4446  -3.4384  -0.3388  -0.3336   1.3471   1.6782
    11.3112  11.4721  13.7123  15.6281

     occupation numbers 
     1.0000   1.0000   1.0000   1.0000   1.0000   1.0000   1.0000   1.0000
     0.0000   0.0000   0.0000   0.0000

          k =-0.3000-0.2887-0.1032 (  3104 PWs)   bands (ev):

   -11.9574 -11.9324  -3.4446  -3.4385  -0.3387  -0.3335   1.3471   1.6782
    11.3112  11.4721  13.7123  15.6281

     occupation numbers 
     1.0000   1.0000   1.0000   1.0000   1.0000   1.0000   1.0000   1.0000
     0.0000   0.0000   0.0000   0.0000

          k = 0.4000-0.1155-0.1032 (  3104 PWs)   bands (ev):

   -11.9574 -11.9324  -3.4446  -3.4384  -0.3388  -0.3336   1.3471   1.6782
    11.3112  11.4721  13.7123  15.6281

     occupation numbers 
     1.0000   1.0000   1.0000   1.0000   1.0000   1.0000   1.0000   1.0000
     0.0000   0.0000   0.0000   0.0000

          k =-0.4000 0.1155-0.1032 (  3104 PWs)   bands (ev):

   -11.9574 -11.9324  -3.4446  -3.4384  -0.3388  -0.3336   1.3471   1.6782
    11.3112  11.4721  13.7123  15.6281

     occupation numbers 
     1.0000   1.0000   1.0000   1.0000   1.0000   1.0000   1.0000   1.0000
     0.0000   0.0000   0.0000   0.0000

          k = 0.3000 0.2887-0.1032 (  3104 PWs)   bands (ev):

   -11.9574 -11.9324  -3.4446  -3.4385  -0.3387  -0.3335   1.3471   1.6782
    11.3112  11.4721  13.7123  15.6281

     occupation numbers 
     1.0000   1.0000   1.0000   1.0000   1.0000   1.0000   1.0000   1.0000
     0.0000   0.0000   0.0000   0.0000

          k =-0.1000 0.5196 0.0000 (  3097 PWs)   bands (ev):

   -10.9890 -10.9641  -5.0533  -5.0390  -0.8091  -0.7982   2.7036   3.1376
     9.3291   9.8903  14.9003  16.6271

     occupation numbers 
     1.0000   1.0000   1.0000   1.0000   1.0000   1.0000   1.0000   1.0000
     0.0000   0.0000   0.0000   0.0000

          k =-0.4000 0.3464 0.0000 (  3097 PWs)   bands (ev):

   -10.9890 -10.9641  -5.0533  -5.0390  -0.8091  -0.7982   2.7036   3.1376
     9.3291   9.8903  14.9003  16.6271

     occupation numbers 
     1.0000   1.0000   1.0000   1.0000   1.0000   1.0000   1.0000   1.0000
     0.0000   0.0000   0.0000   0.0000

          k = 0.5000 0.1732 0.0000 (  3097 PWs)   bands (ev):

   -10.9890 -10.9641  -5.0533  -5.0390  -0.8091  -0.7982   2.7036   3.1376
     9.3291   9.8903  14.9003  16.6271

     occupation numbers 
     1.0000   1.0000   1.0000   1.0000   1.0000   1.0000   1.0000   1.0000
     0.0000   0.0000   0.0000   0.0000

          k =-0.4000-0.3464 0.0000 (  3097 PWs)   bands (ev):

   -10.9890 -10.9641  -5.0533  -5.0390  -0.8091  -0.7982   2.7036   3.1376
     9.3291   9.8903  14.9003  16.6271

     occupation numbers 
     1.0000   1.0000   1.0000   1.0000   1.0000   1.0000   1.0000   1.0000
     0.0000   0.0000   0.0000   0.0000

          k = 0.5000-0.1732 0.0000 (  3097 PWs)   bands (ev):

   -10.9890 -10.9641  -5.0533  -5.0390  -0.8091  -0.7982   2.7036   3.1376
     9.3291   9.8903  14.9003  16.6271

     occupation numbers 
     1.0000   1.0000   1.0000   1.0000   1.0000   1.0000   1.0000   1.0000
     0.0000   0.0000   0.0000   0.0000

          k =-0.1000-0.5196 0.1032 (  3090 PWs)   bands (ev):

   -10.9828 -10.9703  -5.0500  -5.0428  -0.8064  -0.8010   2.8104   3.0275
     9.4316   9.7095  15.4562  16.3787

     occupation numbers 
     1.0000   1.0000   1.0000   1.0000   1.0000   1.0000   1.0000   1.0000
     0.0000   0.0000   0.0000   0.0000

          k =-0.1000 0.5196-0.1032 (  3090 PWs)   bands (ev):

   -10.9828 -10.9703  -5.0500  -5.0428  -0.8064  -0.8010   2.8104   3.0275
     9.4316   9.7095  15.4562  16.3787

     occupation numbers 
     1.0000   1.0000   1.0000   1.0000   1.0000   1.0000   1.0000   1.0000
     0.0000   0.0000   0.0000   0.0000

          k = 0.1000-0.5196-0.1032 (  3090 PWs)   bands (ev):

   -10.9828 -10.9703  -5.0500  -5.0428  -0.8064  -0.8010   2.8104   3.0275
     9.4316   9.7095  15.4562  16.3787

     occupation numbers 
     1.0000   1.0000   1.0000   1.0000   1.0000   1.0000   1.0000   1.0000
     0.0000   0.0000   0.0000   0.0000

          k =-0.4000 0.3464 0.1032 (  3090 PWs)   bands (ev):

   -10.9828 -10.9703  -5.0500  -5.0428  -0.8065  -0.8010   2.8104   3.0275
     9.4316   9.7095  15.4562  16.3787

     occupation numbers 
     1.0000   1.0000   1.0000   1.0000   1.0000   1.0000   1.0000   1.0000
     0.0000   0.0000   0.0000   0.0000

          k = 0.5000 0.1732 0.1032 (  3090 PWs)   bands (ev):

   -10.9828 -10.9703  -5.0500  -5.0428  -0.8064  -0.8010   2.8104   3.0275
     9.4316   9.7095  15.4562  16.3787

     occupation numbers 
     1.0000   1.0000   1.0000   1.0000   1.0000   1.0000   1.0000   1.0000
     0.0000   0.0000   0.0000   0.0000

          k =-0.5000-0.1732 0.1032 (  3090 PWs)   bands (ev):

   -10.9828 -10.9703  -5.0500  -5.0428  -0.8064  -0.8010   2.8104   3.0275
     9.4316   9.7095  15.4562  16.3787

     occupation numbers 
     1.0000   1.0000   1.0000   1.0000   1.0000   1.0000   1.0000   1.0000
     0.0000   0.0000   0.0000   0.0000

          k = 0.4000-0.3464 0.1032 (  3090 PWs)   bands (ev):

   -10.9828 -10.9703  -5.0500  -5.0428  -0.8065  -0.8010   2.8104   3.0275
     9.4316   9.7095  15.4562  16.3787

     occupation numbers 
     1.0000   1.0000   1.0000   1.0000   1.0000   1.0000   1.0000   1.0000
     0.0000   0.0000   0.0000   0.0000

          k =-0.4000-0.3464-0.1032 (  3090 PWs)   bands (ev):

   -10.9828 -10.9703  -5.0500  -5.0428  -0.8064  -0.8010   2.8104   3.0275
     9.4316   9.7095  15.4562  16.3787

     occupation numbers 
     1.0000   1.0000   1.0000   1.0000   1.0000   1.0000   1.0000   1.0000
     0.0000   0.0000   0.0000   0.0000

          k = 0.5000-0.1732-0.1032 (  3090 PWs)   bands (ev):

   -10.9828 -10.9703  -5.0500  -5.0428  -0.8065  -0.8010   2.8104   3.0275
     9.4316   9.7095  15.4562  16.3787

     occupation numbers 
     1.0000   1.0000   1.0000   1.0000   1.0000   1.0000   1.0000   1.0000
     0.0000   0.0000   0.0000   0.0000

          k =-0.5000 0.1732-0.1032 (  3090 PWs)   bands (ev):

   -10.9828 -10.9703  -5.0500  -5.0428  -0.8065  -0.8010   2.8104   3.0275
     9.4316   9.7095  15.4562  16.3787

     occupation numbers 
     1.0000   1.0000   1.0000   1.0000   1.0000   1.0000   1.0000   1.0000
     0.0000   0.0000   0.0000   0.0000

          k = 0.4000 0.3464-0.1032 (  3090 PWs)   bands (ev):

   -10.9828 -10.9703  -5.0500  -5.0428  -0.8064  -0.8010   2.8104   3.0275
     9.4316   9.7095  15.4562  16.3787

     occupation numbers 
     1.0000   1.0000   1.0000   1.0000   1.0000   1.0000   1.0000   1.0000
     0.0000   0.0000   0.0000   0.0000

          k =-0.2000 0.3464 0.0000 (  3105 PWs)   bands (ev):

   -12.1226 -12.0694  -2.7270  -2.7201  -0.8771  -0.8652   0.9614   1.6521
    11.8865  12.2298  12.4917  17.3166

     occupation numbers 
     1.0000   1.0000   1.0000   1.0000   1.0000   1.0000   1.0000   1.0000
     0.0000   0.0000   0.0000   0.0000

          k = 0.4000 0.0000 0.0000 (  3105 PWs)   bands (ev):

   -12.1226 -12.0694  -2.7270  -2.7201  -0.8771  -0.8652   0.9614   1.6521
    11.8865  12.2298  12.4917  17.3166

     occupation numbers 
     1.0000   1.0000   1.0000   1.0000   1.0000   1.0000   1.0000   1.0000
     0.0000   0.0000   0.0000   0.0000

          k =-0.2000-0.3464 0.1032 (  3109 PWs)   bands (ev):

   -12.1094 -12.0828  -2.7257  -2.7222  -0.8745  -0.8687   1.1235   1.4677
    11.8459  11.8748  13.6442  15.6594

     occupation numbers 
     1.0000   1.0000   1.0000   1.0000   1.0000   1.0000   1.0000   1.0000
     0.0000   0.0000   0.0000   0.0000

          k =-0.2000 0.3464-0.1032 (  3109 PWs)   bands (ev):

   -12.1094 -12.0828  -2.7256  -2.7222  -0.8745  -0.8687   1.1235   1.4677
    11.8460  11.8748  13.6442  15.6594

     occupation numbers 
     1.0000   1.0000   1.0000   1.0000   1.0000   1.0000   1.0000   1.0000
     0.0000   0.0000   0.0000   0.0000

          k = 0.2000-0.3464-0.1032 (  3109 PWs)   bands (ev):

   -12.1094 -12.0828  -2.7256  -2.7222  -0.8745  -0.8687   1.1235   1.4677
    11.8460  11.8748  13.6442  15.6594

     occupation numbers 
     1.0000   1.0000   1.0000   1.0000   1.0000   1.0000   1.0000   1.0000
     0.0000   0.0000   0.0000   0.0000

          k = 0.4000 0.0000 0.1032 (  3109 PWs)   bands (ev):

   -12.1094 -12.0828  -2.7257  -2.7222  -0.8745  -0.8687   1.1235   1.4677
    11.8460  11.8748  13.6442  15.6594

     occupation numbers 
     1.0000   1.0000   1.0000   1.0000   1.0000   1.0000   1.0000   1.0000
     0.0000   0.0000   0.0000   0.0000

          k =-0.4000 0.0000 0.1032 (  3109 PWs)   bands (ev):

   -12.1094 -12.0828  -2.7257  -2.7222  -0.8745  -0.8687   1.1235   1.4677
    11.8460  11.8748  13.6442  15.6594

     occupation numbers 
     1.0000   1.0000   1.0000   1.0000   1.0000   1.0000   1.0000   1.0000
     0.0000   0.0000   0.0000   0.0000

          k =-0.2000 0.4619 0.0000 (  3084 PWs)   bands (ev):

   -11.0784 -11.0437  -4.2577  -4.2426  -1.8315  -1.8209   2.5247   3.0313
    10.1822  10.3960  14.6419  17.2531

     occupation numbers 
     1.0000   1.0000   1.0000   1.0000   1.0000   1.0000   1.0000   1.0000
     0.0000   0.0000   0.0000   0.0000

          k =-0.3000 0.4041 0.0000 (  3084 PWs)   bands (ev):

   -11.0784 -11.0437  -4.2577  -4.2425  -1.8315  -1.8209   2.5247   3.0313
    10.1822  10.3960  14.6419  17.2531

     occupation numbers 
     1.0000   1.0000   1.0000   1.0000   1.0000   1.0000   1.0000   1.0000
     0.0000   0.0000   0.0000   0.0000

          k = 0.5000 0.0577 0.0000 (  3084 PWs)   bands (ev):

   -11.0784 -11.0437  -4.2577  -4.2426  -1.8315  -1.8209   2.5247   3.0313
    10.1822  10.3960  14.6419  17.2531

     occupation numbers 
     1.0000   1.0000   1.0000   1.0000   1.0000   1.0000   1.0000   1.0000
     0.0000   0.0000   0.0000   0.0000

          k =-0.3000-0.4041 0.0000 (  3084 PWs)   bands (ev):

   -11.0784 -11.0437  -4.2577  -4.2425  -1.8315  -1.8209   2.5247   3.0313
    10.1822  10.3960  14.6419  17.2531

     occupation numbers 
     1.0000   1.0000   1.0000   1.0000   1.0000   1.0000   1.0000   1.0000
     0.0000   0.0000   0.0000   0.0000

          k = 0.5000-0.0577 0.0000 (  3084 PWs)   bands (ev):

   -11.0784 -11.0437  -4.2577  -4.2425  -1.8315  -1.8209   2.5247   3.0313
    10.1822  10.3960  14.6419  17.2531

     occupation numbers 
     1.0000   1.0000   1.0000   1.0000   1.0000   1.0000   1.0000   1.0000
     0.0000   0.0000   0.0000   0.0000

          k =-0.2000-0.4619 0.1032 (  3086 PWs)   bands (ev):

   -11.0697 -11.0524  -4.2541  -4.2465  -1.8291  -1.8238   2.6473   2.9005
    10.2007  10.3075  15.3264  16.6920

     occupation numbers 
     1.0000   1.0000   1.0000   1.0000   1.0000   1.0000   1.0000   1.0000
     0.0000   0.0000   0.0000   0.0000

          k =-0.2000 0.4619-0.1032 (  3086 PWs)   bands (ev):

   -11.0697 -11.0524  -4.2541  -4.2465  -1.8291  -1.8238   2.6473   2.9005
    10.2007  10.3075  15.3264  16.6920

     occupation numbers 
     1.0000   1.0000   1.0000   1.0000   1.0000   1.0000   1.0000   1.0000
     0.0000   0.0000   0.0000   0.0000

          k = 0.2000-0.4619-0.1032 (  3086 PWs)   bands (ev):

   -11.0697 -11.0524  -4.2541  -4.2465  -1.8291  -1.8238   2.6473   2.9005
    10.2007  10.3075  15.3264  16.6920

     occupation numbers 
     1.0000   1.0000   1.0000   1.0000   1.0000   1.0000   1.0000   1.0000
     0.0000   0.0000   0.0000   0.0000

          k =-0.3000 0.4041 0.1032 (  3086 PWs)   bands (ev):

   -11.0697 -11.0524  -4.2541  -4.2465  -1.8291  -1.8238   2.6473   2.9005
    10.2007  10.3075  15.3264  16.6920

     occupation numbers 
     1.0000   1.0000   1.0000   1.0000   1.0000   1.0000   1.0000   1.0000
     0.0000   0.0000   0.0000   0.0000

          k = 0.5000 0.0577 0.1032 (  3086 PWs)   bands (ev):

   -11.0697 -11.0524  -4.2541  -4.2465  -1.8291  -1.8238   2.6473   2.9005
    10.2007  10.3075  15.3264  16.6920

     occupation numbers 
     1.0000   1.0000   1.0000   1.0000   1.0000   1.0000   1.0000   1.0000
     0.0000   0.0000   0.0000   0.0000

          k =-0.5000-0.0577 0.1032 (  3086 PWs)   bands (ev):

   -11.0697 -11.0524  -4.2541  -4.2465  -1.8291  -1.8238   2.6473   2.9005
    10.2007  10.3075  15.3264  16.6920

     occupation numbers 
     1.0000   1.0000   1.0000   1.0000   1.0000   1.0000   1.0000   1.0000
     0.0000   0.0000   0.0000   0.0000

          k = 0.3000-0.4041 0.1032 (  3086 PWs)   bands (ev):

   -11.0697 -11.0524  -4.2541  -4.2465  -1.8291  -1.8238   2.6473   2.9005
    10.2007  10.3075  15.3264  16.6920

     occupation numbers 
     1.0000   1.0000   1.0000   1.0000   1.0000   1.0000   1.0000   1.0000
     0.0000   0.0000   0.0000   0.0000

          k =-0.3000-0.4041-0.1032 (  3086 PWs)   bands (ev):

   -11.0697 -11.0524  -4.2541  -4.2465  -1.8291  -1.8238   2.6473   2.9005
    10.2007  10.3075  15.3264  16.6920

     occupation numbers 
     1.0000   1.0000   1.0000   1.0000   1.0000   1.0000   1.0000   1.0000
     0.0000   0.0000   0.0000   0.0000

          k = 0.5000-0.0577-0.1032 (  3086 PWs)   bands (ev):

   -11.0697 -11.0524  -4.2541  -4.2465  -1.8291  -1.8238   2.6473   2.9005
    10.2007  10.3075  15.3264  16.6920

     occupation numbers 
     1.0000   1.0000   1.0000   1.0000   1.0000   1.0000   1.0000   1.0000
     0.0000   0.0000   0.0000   0.0000

          k =-0.5000 0.0577-0.1032 (  3086 PWs)   bands (ev):

   -11.0697 -11.0524  -4.2541  -4.2465  -1.8291  -1.8238   2.6473   2.9005
    10.2007  10.3075  15.3264  16.6920

     occupation numbers 
     1.0000   1.0000   1.0000   1.0000   1.0000   1.0000   1.0000   1.0000
     0.0000   0.0000   0.0000   0.0000

          k = 0.3000 0.4041-0.1032 (  3086 PWs)   bands (ev):

   -11.0697 -11.0524  -4.2541  -4.2465  -1.8291  -1.8238   2.6473   2.9005
    10.2007  10.3075  15.3264  16.6920

     occupation numbers 
     1.0000   1.0000   1.0000   1.0000   1.0000   1.0000   1.0000   1.0000
     0.0000   0.0000   0.0000   0.0000

          k =-0.4000 0.4619 0.0000 (  3082 PWs)   bands (ev):

   -10.5208 -10.5090  -5.0219  -5.0022  -2.1362  -2.1255   3.4545   3.7312
     9.1569   9.5118  16.7507  17.0726

     occupation numbers 
     1.0000   1.0000   1.0000   1.0000   1.0000   1.0000   1.0000   1.0000
     0.0000   0.0000   0.0000   0.0000

          k = 0.6000 0.1155 0.0000 (  3082 PWs)   bands (ev):

   -10.5208 -10.5090  -5.0219  -5.0022  -2.1362  -2.1255   3.4545   3.7312
     9.1568   9.5118  16.7507  17.0726

     occupation numbers 
     1.0000   1.0000   1.0000   1.0000   1.0000   1.0000   1.0000   1.0000
     0.0000   0.0000   0.0000   0.0000

          k =-0.2000-0.5774 0.1032 (  3075 PWs)   bands (ev):

   -10.5179 -10.5120  -5.0172  -5.0073  -2.1337  -2.1284   3.5263   3.6650
     9.2166   9.3940  17.0568  17.4795

     occupation numbers 
     1.0000   1.0000   1.0000   1.0000   1.0000   1.0000   1.0000   1.0000
     0.0000   0.0000   0.0000   0.0000

          k =-0.4000 0.4619 0.1032 (  3075 PWs)   bands (ev):

   -10.5179 -10.5120  -5.0172  -5.0073  -2.1337  -2.1284   3.5263   3.6650
     9.2166   9.3940  17.0567  17.4696

     occupation numbers 
     1.0000   1.0000   1.0000   1.0000   1.0000   1.0000   1.0000   1.0000
     0.0000   0.0000   0.0000   0.0000

          k = 0.6000 0.1155 0.1032 (  3075 PWs)   bands (ev):

   -10.5179 -10.5120  -5.0172  -5.0073  -2.1337  -2.1284   3.5263   3.6650
     9.2166   9.3940  17.0567  17.4721

     occupation numbers 
     1.0000   1.0000   1.0000   1.0000   1.0000   1.0000   1.0000   1.0000
     0.0000   0.0000   0.0000   0.0000

          k =-0.6000-0.1155 0.1032 (  3075 PWs)   bands (ev):

   -10.5179 -10.5120  -5.0172  -5.0073  -2.1337  -2.1284   3.5263   3.6650
     9.2166   9.3940  17.0567  17.4580

     occupation numbers 
     1.0000   1.0000   1.0000   1.0000   1.0000   1.0000   1.0000   1.0000
     0.0000   0.0000   0.0000   0.0000

          k = 0.4000-0.4619 0.1032 (  3075 PWs)   bands (ev):

   -10.5179 -10.5120  -5.0172  -5.0073  -2.1337  -2.1284   3.5263   3.6650
     9.2166   9.3940  17.0567  17.4740

     occupation numbers 
     1.0000   1.0000   1.0000   1.0000   1.0000   1.0000   1.0000   1.0000
     0.0000   0.0000   0.0000   0.0000

          k =-0.3000 0.5196 0.0000 (  3080 PWs)   bands (ev):

   -10.3501 -10.3367  -4.6825  -4.6536  -2.9894  -2.9863   3.7275   3.9548
     9.3372   9.4258  16.1190  16.9694

     occupation numbers 
     1.0000   1.0000   1.0000   1.0000   1.0000   1.0000   1.0000   1.0000
     0.0000   0.0000   0.0000   0.0000

          k = 0.6000-0.0000 0.0000 (  3080 PWs)   bands (ev):

   -10.3501 -10.3367  -4.6825  -4.6536  -2.9894  -2.9863   3.7275   3.9548
     9.3372   9.4258  16.1190  16.9694

     occupation numbers 
     1.0000   1.0000   1.0000   1.0000   1.0000   1.0000   1.0000   1.0000
     0.0000   0.0000   0.0000   0.0000

          k =-0.3000-0.5196 0.1032 (  3081 PWs)   bands (ev):

   -10.3467 -10.3400  -4.6753  -4.6609  -2.9889  -2.9874   3.7880   3.9020
     9.3326   9.3780  16.4470  17.0872

     occupation numbers 
     1.0000   1.0000   1.0000   1.0000   1.0000   1.0000   1.0000   1.0000
     0.0000   0.0000   0.0000   0.0000

          k =-0.3000 0.5196-0.1032 (  3081 PWs)   bands (ev):

   -10.3467 -10.3400  -4.6753  -4.6609  -2.9889  -2.9874   3.7880   3.9020
     9.3326   9.3780  16.4470  17.0872

     occupation numbers 
     1.0000   1.0000   1.0000   1.0000   1.0000   1.0000   1.0000   1.0000
     0.0000   0.0000   0.0000   0.0000

          k = 0.3000-0.5196-0.1032 (  3081 PWs)   bands (ev):

   -10.3467 -10.3400  -4.6753  -4.6609  -2.9889  -2.9874   3.7880   3.9020
     9.3326   9.3780  16.4470  17.0872

     occupation numbers 
     1.0000   1.0000   1.0000   1.0000   1.0000   1.0000   1.0000   1.0000
     0.0000   0.0000   0.0000   0.0000

          k = 0.6000-0.0000 0.1032 (  3081 PWs)   bands (ev):

   -10.3467 -10.3400  -4.6753  -4.6609  -2.9889  -2.9874   3.7880   3.9020
     9.3326   9.3780  16.4470  17.0872

     occupation numbers 
     1.0000   1.0000   1.0000   1.0000   1.0000   1.0000   1.0000   1.0000
     0.0000   0.0000   0.0000   0.0000

          k =-0.6000 0.0000 0.1032 (  3081 PWs)   bands (ev):

   -10.3467 -10.3400  -4.6753  -4.6609  -2.9889  -2.9874   3.7880   3.9020
     9.3326   9.3780  16.4470  17.0872

     occupation numbers 
     1.0000   1.0000   1.0000   1.0000   1.0000   1.0000   1.0000   1.0000
     0.0000   0.0000   0.0000   0.0000

     the Fermi energy is     5.6422 ev

!    total energy              =     -54.83078906 Ry
     estimated scf accuracy    <          1.8E-10 Ry
     smearing contrib. (-TS)   =       0.00000000 Ry
     internal energy E=F+TS    =     -54.83078906 Ry

     The total energy is F=E-TS. E is the sum of the following terms:
     one-electron contribution =     -30.51606273 Ry
     hartree contribution      =      23.34245441 Ry
     xc contribution           =     -19.02477732 Ry
     ewald contribution        =     -28.63240342 Ry

     convergence has been achieved in  11 iterations

     Forces acting on atoms (cartesian axes, Ry/au):

     atom    1 type  1   force =     0.00000417   -0.00000397    0.00000003
     atom    2 type  1   force =    -0.00000900    0.00000121    0.00000020
     atom    3 type  2   force =     0.00000772   -0.00000209    0.00000001
     atom    4 type  2   force =    -0.00000288    0.00000486   -0.00000024
     The non-local contrib.  to forces
     atom    1 type  1   force =     0.00000804   -0.00000154    0.00000813
     atom    2 type  1   force =    -0.00000323    0.00000438    0.00000827
     atom    3 type  2   force =     0.00000232   -0.00000113    0.00000014
     atom    4 type  2   force =    -0.00000121    0.00000177    0.00000023
     The ionic contribution  to forces
     atom    1 type  1   force =     0.00001707   -0.00000986    0.00000000
     atom    2 type  1   force =    -0.00001707    0.00000986    0.00000000
     atom    3 type  2   force =     0.00001707   -0.00000986    0.00000000
     atom    4 type  2   force =    -0.00001707    0.00000986    0.00000000
     The local contribution  to forces
     atom    1 type  1   force =    -0.00001733    0.00000921   -0.00000304
     atom    2 type  1   force =     0.00001660   -0.00000960   -0.00000408
     atom    3 type  2   force =    -0.00001437    0.00000666   -0.00000126
     atom    4 type  2   force =     0.00001196   -0.00000851    0.00000079
     The core correction contribution to forces
     atom    1 type  1   force =    -0.00000681   -0.00000363   -0.00000449
     atom    2 type  1   force =    -0.00000852   -0.00000526   -0.00000445
     atom    3 type  2   force =    -0.00000024    0.00000014   -0.00000003
     atom    4 type  2   force =     0.00000021   -0.00000016   -0.00000002
     The Hubbard contrib.    to forces
     atom    1 type  1   force =     0.00000000    0.00000000    0.00000000
     atom    2 type  1   force =     0.00000000    0.00000000    0.00000000
     atom    3 type  2   force =     0.00000000    0.00000000    0.00000000
     atom    4 type  2   force =     0.00000000    0.00000000    0.00000000
     The SCF correction term to forces
     atom    1 type  1   force =    -0.00000000   -0.00000001   -0.00000051
     atom    2 type  1   force =     0.00000002   -0.00000002    0.00000053
     atom    3 type  2   force =    -0.00000026    0.00000025    0.00000121
     atom    4 type  2   force =     0.00000004    0.00000006   -0.00000119

     Total force =     0.000015     Total SCF correction =     0.000002
     SCF correction compared to forces is large: reduce conv_thr to get better values


     Computing stress (Cartesian axis) and pressure

          total   stress  (Ry/bohr**3)                   (kbar)     P=      378.18
   0.00384641   0.00000004   0.00000000          565.83        0.01        0.00
   0.00000004   0.00384644   0.00000000            0.01      565.83        0.00
   0.00000000   0.00000000   0.00001959            0.00        0.00        2.88

     kinetic stress (kbar)  14238.96     -0.00     -0.00
                               -0.00  14238.96     -0.00
                               -0.00     -0.00  15237.40

     local   stress (kbar) -27600.08     -0.04     -0.00
                               -0.04 -27600.13     -0.00
                               -0.00     -0.00  30485.12

     nonloc. stress (kbar)  -1894.01      0.00      0.00
                                0.00  -1894.01      0.00
                                0.00      0.00  -1864.76

     hartree stress (kbar)  11186.86      0.00     -0.00
                                0.00  11186.87     -0.00
                               -0.00     -0.00  -8991.76

     exc-cor stress (kbar)   -764.80      0.00     -0.00
                                0.00   -764.80     -0.00
                               -0.00     -0.00   -886.62

     corecor stress (kbar)  -2273.67      0.00      0.00
                                0.00  -2273.67      0.00
                                0.00      0.00  -2216.67

     ewald   stress (kbar)   7672.56      0.04      0.00
                                0.04   7672.62      0.00
                                0.00      0.00 -31759.82

     hubbard stress (kbar)      0.00      0.00      0.00
                                0.00      0.00      0.00
                                0.00      0.00      0.00

     DFT-D   stress (kbar)      0.00      0.00      0.00
                                0.00      0.00      0.00
                                0.00      0.00      0.00

     XDM     stress (kbar)      0.00      0.00      0.00
                                0.00      0.00      0.00
                                0.00      0.00      0.00

     dft-nl  stress (kbar)      0.00      0.00      0.00
                                0.00      0.00      0.00
                                0.00      0.00      0.00

     TS-vdW  stress (kbar)      0.00      0.00      0.00
                                0.00      0.00      0.00
                                0.00      0.00      0.00



     init_run     :      0.49s CPU      0.60s WALL (       1 calls)
     electrons    :     11.26s CPU     12.07s WALL (       1 calls)
     forces       :      0.12s CPU      0.12s WALL (       1 calls)
     stress       :      0.35s CPU      0.35s WALL (       1 calls)

     Called by init_run:
     wfcinit      :      0.37s CPU      0.44s WALL (       1 calls)
     wfcinit:atom :      0.01s CPU      0.01s WALL (     152 calls)
     wfcinit:wfcr :      0.34s CPU      0.40s WALL (     152 calls)
     potinit      :      0.03s CPU      0.04s WALL (       1 calls)
     hinit0       :      0.07s CPU      0.10s WALL (       1 calls)

     Called by electrons:
     c_bands      :      9.64s CPU     10.36s WALL (      11 calls)
     sum_band     :      1.47s CPU      1.56s WALL (      11 calls)
     v_of_rho     :      0.06s CPU      0.06s WALL (      12 calls)
     v_h          :      0.00s CPU      0.00s WALL (      12 calls)
     v_xc         :      0.07s CPU      0.07s WALL (      14 calls)
     newd         :      0.03s CPU      0.04s WALL (      12 calls)
     mix_rho      :      0.01s CPU      0.01s WALL (      11 calls)

     Called by c_bands:
     init_us_2    :      0.23s CPU      0.24s WALL (    3800 calls)
     cegterg      :      9.20s CPU      9.90s WALL (    1672 calls)

     Called by sum_band:
     sum_band:wei :      0.00s CPU      0.00s WALL (      11 calls)
     sum_band:loo :      1.44s CPU      1.52s WALL (      11 calls)
     sum_band:buf :      0.03s CPU      0.03s WALL (    1672 calls)
     sum_band:ini :      0.09s CPU      0.09s WALL (    1672 calls)
     sum_band:cal :      0.09s CPU      0.09s WALL (    1672 calls)
     sum_band:bec :      0.01s CPU      0.01s WALL (    1672 calls)
     addusdens    :      0.03s CPU      0.04s WALL (      11 calls)
     addusd:skk   :      0.00s CPU      0.00s WALL (      11 calls)
     addusd:dgemm :      0.01s CPU      0.02s WALL (      11 calls)
     addusd:qvan2 :      0.01s CPU      0.01s WALL (      11 calls)

     Called by *egterg:
     cdiaghg      :      1.06s CPU      1.36s WALL (    7869 calls)
     cegterg:over :      0.42s CPU      0.45s WALL (    6197 calls)
     cegterg:upda :      0.13s CPU      0.14s WALL (    6197 calls)
     cegterg:last :      0.20s CPU      0.21s WALL (    4040 calls)
     h_psi        :      7.22s CPU      7.61s WALL (    8021 calls)
     s_psi        :      0.15s CPU      0.15s WALL (    8021 calls)
     g_psi        :      0.03s CPU      0.04s WALL (    6197 calls)

     Called by h_psi:
     h_psi:calbec :      0.46s CPU      0.49s WALL (    8021 calls)
     vloc_psi     :      6.50s CPU      6.85s WALL (    8021 calls)
     add_vuspsi   :      0.20s CPU      0.21s WALL (    8021 calls)

     General routines
     calbec       :      0.57s CPU      0.61s WALL (   10453 calls)
     fft          :      0.03s CPU      0.05s WALL (     179 calls)
     ffts         :      0.00s CPU      0.00s WALL (      23 calls)
     fftw         :      7.08s CPU      7.47s WALL (  140896 calls)
     interpolate  :      0.00s CPU      0.00s WALL (      12 calls)

     Parallel routines
     fft_scatt_xy :      0.80s CPU      0.84s WALL (  141098 calls)
     fft_scatt_yz :      2.44s CPU      2.58s WALL (  141098 calls)

     PWSCF        :     12.33s CPU     13.35s WALL


   This run was terminated on:  21: 7:25  28Sep2022            

=------------------------------------------------------------------------------=
   JOB DONE.
=------------------------------------------------------------------------------=
Note: The following floating-point exceptions are signalling: IEEE_UNDERFLOW_FLAG IEEE_DENORMAL
