ITEM: TIMESTEP
5000
ITEM: NUMBER OF ATOMS
8
ITEM: BOX BOUNDS xy xz yz pp pp pp
9.8455431906908419e-02 6.0050113655058563e+00 7.2734794498068533e-01
-6.1977410675773781e-02 4.2630287013031269e+00 3.8228087243206066e-01
5.5355544390305322e-02 4.1263874533946403e+00 1.0966272081423891e+00
ITEM: ATOMS id type x y z
5 2 2.37419 1.32532 0.702332
1 1 1.10461 1.31366 0.0993255
7 2 1.18377 1.81903 2.81811
3 1 2.24515 1.04325 2.14082
8 2 4.78479 1.99661 0.743251
4 1 3.55523 1.82899 0.0315142
2 1 4.79479 2.3241 2.14343
6 2 3.80794 3.22546 2.73878
