ITEM: TIMESTEP
0
ITEM: NUMBER OF ATOMS
8
ITEM: BOX BOUNDS xy xz yz pp pp pp
-3.9116452915080000e+00 5.3865149221640003e+00 -3.9116452915080000e+00
0.0000000000000000e+00 4.2308738994679995e+00 3.9267694216400001e-01
0.0000000000000000e+00 4.1817429977850002e+00 1.1264498169830000e+00
ITEM: ATOMS id type x y z
2 1 0.183541 2.28401 2.04672
4 1 -1.35367 1.77966 0.0313934
8 2 -0.0105911 1.81829 0.725369
6 2 -0.860961 3.18417 2.76714
5 2 2.44859 1.40915 0.685371
1 1 1.56394 2.52095 4.16838
3 1 2.30415 1.13315 2.16073
7 2 1.37873 1.97728 2.85104
