ITEM: TIMESTEP
2000
ITEM: NUMBER OF ATOMS
8
ITEM: BOX BOUNDS xy xz yz pp pp pp
1.2645282149685499e-01 6.0110505827681804e+00 7.6141334444097730e-01
-1.3757810338915188e-01 4.3385467983136774e+00 3.8225207982404519e-01
5.5508855259917222e-02 4.1262341425250684e+00 1.0965446124395437e+00
ITEM: ATOMS id type x y z
5 2 2.37476 1.39471 0.734832
3 1 2.29729 0.962971 2.12399
1 1 1.09065 1.29899 0.0949252
7 2 1.25752 1.7425 2.90656
8 2 4.75377 1.94616 0.75106
2 1 4.85479 2.4378 2.11764
6 2 3.83774 3.21688 2.65054
4 1 3.89614 2.97356 4.09719
