
     Program PWSCF v.6.7MaX starts on 19Feb2023 at 21:56:53 

     This program is part of the open-source Quantum ESPRESSO suite
     for quantum simulation of materials; please cite
         "P. Giannozzi et al., J. Phys.:Condens. Matter 21 395502 (2009);
         "P. Giannozzi et al., J. Phys.:Condens. Matter 29 465901 (2017);
          URL http://www.quantum-espresso.org", 
     in publications or presentations arising from this work. More details at
     http://www.quantum-espresso.org/quote

     Parallel version (MPI), running on    16 processors

     MPI processes distributed on     1 nodes
     R & G space division:  proc/nbgrp/npool/nimage =      16
     Reading input from scale_3d-03.in

     Current dimensions of program PWSCF are:
     Max number of different atomic species (ntypx) = 10
     Max number of k-points (npk) =  40000
     Max angular momentum in pseudopotentials (lmaxx) =  3
     Message from routine read_pp_mesh:
     mesh size missing, using the one in header
     file Fe.pbe-spn-kjpaw_psl.0.2.1.UPF: wavefunction(s)  3D renormalized
     file O.pbe-n-kjpaw_psl.0.1.UPF: wavefunction(s)  2P renormalized

     Subspace diagonalization in iterative solution of the eigenvalue problem:
     a serial algorithm will be used


     Parallelization info
     --------------------
     sticks:   dense  smooth     PW     G-vecs:    dense   smooth      PW
     Min        1282     474    127                85050    19170    2691
     Max        1283     475    129                85053    19173    2692
     Sum       20521    7599   2049              1360823   306739   43063



     bravais-lattice index     =            0
     lattice parameter (alat)  =      19.9928  a.u.
     unit-cell volume          =    2270.1860 (a.u.)^3
     number of atoms/cell      =           25
     number of atomic types    =            4
     number of electrons       =       189.00
     number of Kohn-Sham states=          114
     kinetic-energy cutoff     =     100.0000  Ry
     charge density cutoff     =    1080.0000  Ry
     scf convergence threshold =      2.0E-10
     mixing beta               =       0.4000
     number of iterations used =            8  plain     mixing
     Exchange-correlation= PBE
                           (   1   4   3   4   0   0   0)

     celldm(1)=  19.992808  celldm(2)=   0.000000  celldm(3)=   0.000000
     celldm(4)=   0.000000  celldm(5)=   0.000000  celldm(6)=   0.000000

     crystal axes: (cart. coord. in units of alat)
               a(1) = (   1.000000   0.000000   0.000000 )  
               a(2) = (   0.000000   0.597590   0.000000 )  
               a(3) = (   0.000000   0.000000   0.475375 )  

     reciprocal axes: (cart. coord. in units 2 pi/alat)
               b(1) = (  1.000000  0.000000  0.000000 )  
               b(2) = (  0.000000  1.673388  0.000000 )  
               b(3) = (  0.000000  0.000000  2.103600 )  


     PseudoPot. # 1 for Fe read from file:
     /opt/QEpot/SSSP_precision_pseudos/Fe.pbe-spn-kjpaw_psl.0.2.1.UPF
     MD5 check sum: e86618425769142926afa95317d90200
     Pseudo is Projector augmented-wave + core cor, Zval = 16.0
     Generated using "atomic" code by A. Dal Corso  v.5.0.99 svn rev. 10869
     Shape of augmentation charge: PSQ
     Using radial grid of 1191 points,  6 beta functions with: 
                l(1) =   0
                l(2) =   0
                l(3) =   1
                l(4) =   1
                l(5) =   2
                l(6) =   2
     Q(r) pseudized with 0 coefficients 


     PseudoPot. # 2 for Na read from file:
     /opt/QEpot/SSSP_precision_pseudos/Na_ONCV_PBE-1.0.oncvpsp.upf
     MD5 check sum: 24a298df0a6742ae313db96548fdb2a4
     Pseudo is Norm-conserving, Zval =  9.0
     Generated using ONCVPSP code by D. R. Hamann
     Using radial grid of 1992 points,  4 beta functions with: 
                l(1) =   0
                l(2) =   0
                l(3) =   1
                l(4) =   1

     PseudoPot. # 3 for O  read from file:
     /opt/QEpot/SSSP_precision_pseudos/O.pbe-n-kjpaw_psl.0.1.UPF
     MD5 check sum: 0234752ac141de4415c5fc33072bef88
     Pseudo is Projector augmented-wave + core cor, Zval =  6.0
     Generated using "atomic" code by A. Dal Corso  v.5.0.99 svn rev. 10869
     Shape of augmentation charge: BESSEL
     Using radial grid of 1095 points,  4 beta functions with: 
                l(1) =   0
                l(2) =   0
                l(3) =   1
                l(4) =   1
     Q(r) pseudized with 0 coefficients 


     PseudoPot. # 4 for P  read from file:
     /opt/QEpot/SSSP_precision_pseudos/P.pbe-n-rrkjus_psl.1.0.0.UPF
     MD5 check sum: 8b930f418f0a4573dca56cd030ffe088
     Pseudo is Ultrasoft + core correction, Zval =  5.0
     Generated using "atomic" code by A. Dal Corso  v.5.1
     Using radial grid of 1147 points,  6 beta functions with: 
                l(1) =   0
                l(2) =   0
                l(3) =   1
                l(4) =   1
                l(5) =   2
                l(6) =   2
     Q(r) pseudized with 0 coefficients 


     atomic species   valence    mass     pseudopotential
        Fe            16.00    55.84500     Fe( 1.00)
        Na             9.00    22.98977     Na( 1.00)
        O              6.00    15.99940     O ( 1.00)
        P              5.00    30.97376     P ( 1.00)

     Starting magnetic structure 
     atomic species   magnetization
        Fe           0.312
        Na           0.000
        O            0.000
        P            0.000

     No symmetry found


                                    s                        frac. trans.

      isym =  1     identity                                     

 cryst.   s( 1) = (     1          0          0      )
                  (     0          1          0      )
                  (     0          0          1      )

 cart.    s( 1) = (  1.0000000  0.0000000  0.0000000 )
                  (  0.0000000  1.0000000  0.0000000 )
                  (  0.0000000  0.0000000  1.0000000 )


   Cartesian axes

     site n.     atom                  positions (alat units)
         1           Na  tau(   1) = (   0.9937840   0.0385953   0.1554036  )
         2           Fe  tau(   2) = (   0.2986740   0.4618677   0.4080899  )
         3           Fe  tau(   3) = (   0.2261460   0.2006324   0.2460016  )
         4           Fe  tau(   4) = (   0.6975520   0.1360145   0.0720969  )
         5           Fe  tau(   5) = (   0.7773350   0.3947805   0.2386946  )
         6           P   tau(   6) = (   0.0931440   0.3920799   0.1343235  )
         7           P   tau(   7) = (   0.3969020   0.1499987   0.4518734  )
         8           P   tau(   8) = (   0.9073800   0.1984124   0.3503332  )
         9           P   tau(   9) = (   0.6037890   0.4472925   0.0286314  )
        10           O   tau(  10) = (   0.1796790   0.4031174   0.2590635  )
        11           O   tau(  11) = (   0.3567140   0.1498421   0.1184721  )
        12           O   tau(  12) = (   0.8229580   0.1849200   0.2236000  )
        13           O   tau(  13) = (   0.6444220   0.4468066   0.3619252  )
        14           O   tau(  14) = (   0.4575890   0.4634065   0.0422124  )
        15           O   tau(  15) = (   0.0485940   0.1593545   0.3248246  )
        16           O   tau(  16) = (   0.5429300   0.1338076   0.4363686  )
        17           O   tau(  17) = (   0.9517230   0.4302325   0.1586242  )
        18           O   tau(  18) = (   0.1489580   0.4923729   0.0381341  )
        19           O   tau(  19) = (   0.3206220   0.0485518   0.3675019  )
        20           O   tau(  20) = (   0.8840090   0.3392566   0.3898630  )
        21           O   tau(  21) = (   0.6538890   0.3226245   0.1026787  )
        22           O   tau(  22) = (   0.8517680   0.1014779   0.4496154  )
        23           O   tau(  23) = (   0.6791950   0.5493829   0.1127557  )
        24           O   tau(  24) = (   0.1140230   0.2511898   0.0923412  )
        25           O   tau(  25) = (   0.3482900   0.2750963   0.3788015  )

   Crystallographic axes

     site n.     atom                  positions (cryst. coord.)
         1           Na  tau(   1) = (  0.9937840  0.0645850  0.3269070  )
         2           Fe  tau(   2) = (  0.2986740  0.7728840  0.8584580  )
         3           Fe  tau(   3) = (  0.2261460  0.3357360  0.5174890  )
         4           Fe  tau(   4) = (  0.6975520  0.2276050  0.1516630  )
         5           Fe  tau(   5) = (  0.7773350  0.6606210  0.5021180  )
         6           P   tau(   6) = (  0.0931440  0.6561020  0.2825630  )
         7           P   tau(   7) = (  0.3969020  0.2510060  0.9505610  )
         8           P   tau(   8) = (  0.9073800  0.3320210  0.7369610  )
         9           P   tau(   9) = (  0.6037890  0.7484940  0.0602290  )
        10           O   tau(  10) = (  0.1796790  0.6745720  0.5449660  )
        11           O   tau(  11) = (  0.3567140  0.2507440  0.2492180  )
        12           O   tau(  12) = (  0.8229580  0.3094430  0.4703650  )
        13           O   tau(  13) = (  0.6444220  0.7476810  0.7613460  )
        14           O   tau(  14) = (  0.4575890  0.7754590  0.0887980  )
        15           O   tau(  15) = (  0.0485940  0.2666620  0.6833010  )
        16           O   tau(  16) = (  0.5429300  0.2239120  0.9179450  )
        17           O   tau(  17) = (  0.9517230  0.7199460  0.3336820  )
        18           O   tau(  18) = (  0.1489580  0.8239310  0.0802190  )
        19           O   tau(  19) = (  0.3206220  0.0812460  0.7730770  )
        20           O   tau(  20) = (  0.8840090  0.5677080  0.8201160  )
        21           O   tau(  21) = (  0.6538890  0.5398760  0.2159950  )
        22           O   tau(  22) = (  0.8517680  0.1698120  0.9458110  )
        23           O   tau(  23) = (  0.6791950  0.9193310  0.2371930  )
        24           O   tau(  24) = (  0.1140230  0.4203380  0.1942490  )
        25           O   tau(  25) = (  0.3482900  0.4603430  0.7968470  )

     number of k points=   158  Marzari-Vanderbilt smearing, width (Ry)=  0.0073
                       cart. coord. in units 2pi/alat
        k(    1) = (   0.0000000   0.0000000   0.0000000), wk =   0.0031746
        k(    2) = (   0.0000000   0.0000000   0.2337334), wk =   0.0063492
        k(    3) = (   0.0000000   0.0000000   0.4674667), wk =   0.0063492
        k(    4) = (   0.0000000   0.0000000   0.7012001), wk =   0.0063492
        k(    5) = (   0.0000000   0.0000000   0.9349334), wk =   0.0063492
        k(    6) = (   0.0000000   0.2390555   0.0000000), wk =   0.0063492
        k(    7) = (   0.0000000   0.2390555   0.2337334), wk =   0.0063492
        k(    8) = (   0.0000000   0.2390555   0.4674667), wk =   0.0063492
        k(    9) = (   0.0000000   0.2390555   0.7012001), wk =   0.0063492
        k(   10) = (   0.0000000   0.2390555   0.9349334), wk =   0.0063492
        k(   11) = (   0.0000000   0.4781110   0.0000000), wk =   0.0063492
        k(   12) = (   0.0000000   0.4781110   0.2337334), wk =   0.0063492
        k(   13) = (   0.0000000   0.4781110   0.4674667), wk =   0.0063492
        k(   14) = (   0.0000000   0.4781110   0.7012001), wk =   0.0063492
        k(   15) = (   0.0000000   0.4781110   0.9349334), wk =   0.0063492
        k(   16) = (   0.0000000   0.7171664   0.0000000), wk =   0.0063492
        k(   17) = (   0.0000000   0.7171664   0.2337334), wk =   0.0063492
        k(   18) = (   0.0000000   0.7171664   0.4674667), wk =   0.0063492
        k(   19) = (   0.0000000   0.7171664   0.7012001), wk =   0.0063492
        k(   20) = (   0.0000000   0.7171664   0.9349334), wk =   0.0063492
        k(   21) = (   0.2000000   0.0000000   0.0000000), wk =   0.0063492
        k(   22) = (   0.2000000   0.0000000   0.2337334), wk =   0.0063492
        k(   23) = (   0.2000000   0.0000000   0.4674667), wk =   0.0063492
        k(   24) = (   0.2000000   0.0000000   0.7012001), wk =   0.0063492
        k(   25) = (   0.2000000   0.0000000   0.9349334), wk =   0.0063492
        k(   26) = (   0.2000000   0.2390555   0.0000000), wk =   0.0063492
        k(   27) = (   0.2000000   0.2390555   0.2337334), wk =   0.0063492
        k(   28) = (   0.2000000   0.2390555   0.4674667), wk =   0.0063492
        k(   29) = (   0.2000000   0.2390555   0.7012001), wk =   0.0063492
        k(   30) = (   0.2000000   0.2390555   0.9349334), wk =   0.0063492
        k(   31) = (   0.2000000   0.4781110   0.0000000), wk =   0.0063492
        k(   32) = (   0.2000000   0.4781110   0.2337334), wk =   0.0063492
        k(   33) = (   0.2000000   0.4781110   0.4674667), wk =   0.0063492
        k(   34) = (   0.2000000   0.4781110   0.7012001), wk =   0.0063492
        k(   35) = (   0.2000000   0.4781110   0.9349334), wk =   0.0063492
        k(   36) = (   0.2000000   0.7171664   0.0000000), wk =   0.0063492
        k(   37) = (   0.2000000   0.7171664   0.2337334), wk =   0.0063492
        k(   38) = (   0.2000000   0.7171664   0.4674667), wk =   0.0063492
        k(   39) = (   0.2000000   0.7171664   0.7012001), wk =   0.0063492
        k(   40) = (   0.2000000   0.7171664   0.9349334), wk =   0.0063492
        k(   41) = (   0.4000000   0.0000000   0.0000000), wk =   0.0063492
        k(   42) = (   0.4000000   0.0000000   0.2337334), wk =   0.0063492
        k(   43) = (   0.4000000   0.0000000   0.4674667), wk =   0.0063492
        k(   44) = (   0.4000000   0.0000000   0.7012001), wk =   0.0063492
        k(   45) = (   0.4000000   0.0000000   0.9349334), wk =   0.0063492
        k(   46) = (   0.4000000   0.2390555   0.0000000), wk =   0.0063492
        k(   47) = (   0.4000000   0.2390555   0.2337334), wk =   0.0063492
        k(   48) = (   0.4000000   0.2390555   0.4674667), wk =   0.0063492
        k(   49) = (   0.4000000   0.2390555   0.7012001), wk =   0.0063492
        k(   50) = (   0.4000000   0.2390555   0.9349334), wk =   0.0063492
        k(   51) = (   0.4000000   0.4781110   0.0000000), wk =   0.0063492
        k(   52) = (   0.4000000   0.4781110   0.2337334), wk =   0.0063492
        k(   53) = (   0.4000000   0.4781110   0.4674667), wk =   0.0063492
        k(   54) = (   0.4000000   0.4781110   0.7012001), wk =   0.0063492
        k(   55) = (   0.4000000   0.4781110   0.9349334), wk =   0.0063492
        k(   56) = (   0.4000000   0.7171664   0.0000000), wk =   0.0063492
        k(   57) = (   0.4000000   0.7171664   0.2337334), wk =   0.0063492
        k(   58) = (   0.4000000   0.7171664   0.4674667), wk =   0.0063492
        k(   59) = (   0.4000000   0.7171664   0.7012001), wk =   0.0063492
        k(   60) = (   0.4000000   0.7171664   0.9349334), wk =   0.0063492
        k(   61) = (   0.0000000  -0.2390555   0.2337334), wk =   0.0063492
        k(   62) = (   0.0000000  -0.2390555   0.4674667), wk =   0.0063492
        k(   63) = (   0.0000000  -0.2390555   0.7012001), wk =   0.0063492
        k(   64) = (   0.0000000  -0.2390555   0.9349334), wk =   0.0063492
        k(   65) = (   0.0000000  -0.4781110   0.2337334), wk =   0.0063492
        k(   66) = (   0.0000000  -0.4781110   0.4674667), wk =   0.0063492
        k(   67) = (   0.0000000  -0.4781110   0.7012001), wk =   0.0063492
        k(   68) = (   0.0000000  -0.4781110   0.9349334), wk =   0.0063492
        k(   69) = (   0.0000000  -0.7171664   0.2337334), wk =   0.0063492
        k(   70) = (   0.0000000  -0.7171664   0.4674667), wk =   0.0063492
        k(   71) = (   0.0000000  -0.7171664   0.7012001), wk =   0.0063492
        k(   72) = (   0.0000000  -0.7171664   0.9349334), wk =   0.0063492
        k(   73) = (  -0.2000000   0.0000000   0.2337334), wk =   0.0063492
        k(   74) = (  -0.2000000   0.0000000   0.4674667), wk =   0.0063492
        k(   75) = (  -0.2000000   0.0000000   0.7012001), wk =   0.0063492
        k(   76) = (  -0.2000000   0.0000000   0.9349334), wk =   0.0063492
        k(   77) = (  -0.2000000   0.2390555   0.0000000), wk =   0.0063492
        k(   78) = (  -0.2000000  -0.2390555   0.2337334), wk =   0.0063492
        k(   79) = (  -0.2000000   0.2390555  -0.2337334), wk =   0.0063492
        k(   80) = (   0.2000000  -0.2390555  -0.2337334), wk =   0.0063492
        k(   81) = (  -0.2000000  -0.2390555   0.4674667), wk =   0.0063492
        k(   82) = (  -0.2000000   0.2390555  -0.4674667), wk =   0.0063492
        k(   83) = (   0.2000000  -0.2390555  -0.4674667), wk =   0.0063492
        k(   84) = (  -0.2000000  -0.2390555   0.7012001), wk =   0.0063492
        k(   85) = (  -0.2000000   0.2390555  -0.7012001), wk =   0.0063492
        k(   86) = (   0.2000000  -0.2390555  -0.7012001), wk =   0.0063492
        k(   87) = (  -0.2000000  -0.2390555   0.9349334), wk =   0.0063492
        k(   88) = (  -0.2000000   0.2390555  -0.9349334), wk =   0.0063492
        k(   89) = (   0.2000000  -0.2390555  -0.9349334), wk =   0.0063492
        k(   90) = (  -0.2000000   0.4781110   0.0000000), wk =   0.0063492
        k(   91) = (  -0.2000000  -0.4781110   0.2337334), wk =   0.0063492
        k(   92) = (  -0.2000000   0.4781110  -0.2337334), wk =   0.0063492
        k(   93) = (   0.2000000  -0.4781110  -0.2337334), wk =   0.0063492
        k(   94) = (  -0.2000000  -0.4781110   0.4674667), wk =   0.0063492
        k(   95) = (  -0.2000000   0.4781110  -0.4674667), wk =   0.0063492
        k(   96) = (   0.2000000  -0.4781110  -0.4674667), wk =   0.0063492
        k(   97) = (  -0.2000000  -0.4781110   0.7012001), wk =   0.0063492
        k(   98) = (  -0.2000000   0.4781110  -0.7012001), wk =   0.0063492
        k(   99) = (   0.2000000  -0.4781110  -0.7012001), wk =   0.0063492
        k(  100) = (  -0.2000000  -0.4781110   0.9349334), wk =   0.0063492
        k(  101) = (  -0.2000000   0.4781110  -0.9349334), wk =   0.0063492
        k(  102) = (   0.2000000  -0.4781110  -0.9349334), wk =   0.0063492
        k(  103) = (  -0.2000000   0.7171664   0.0000000), wk =   0.0063492
        k(  104) = (  -0.2000000  -0.7171664   0.2337334), wk =   0.0063492
        k(  105) = (  -0.2000000   0.7171664  -0.2337334), wk =   0.0063492
        k(  106) = (   0.2000000  -0.7171664  -0.2337334), wk =   0.0063492
        k(  107) = (  -0.2000000  -0.7171664   0.4674667), wk =   0.0063492
        k(  108) = (  -0.2000000   0.7171664  -0.4674667), wk =   0.0063492
        k(  109) = (   0.2000000  -0.7171664  -0.4674667), wk =   0.0063492
        k(  110) = (  -0.2000000  -0.7171664   0.7012001), wk =   0.0063492
        k(  111) = (  -0.2000000   0.7171664  -0.7012001), wk =   0.0063492
        k(  112) = (   0.2000000  -0.7171664  -0.7012001), wk =   0.0063492
        k(  113) = (  -0.2000000  -0.7171664   0.9349334), wk =   0.0063492
        k(  114) = (  -0.2000000   0.7171664  -0.9349334), wk =   0.0063492
        k(  115) = (   0.2000000  -0.7171664  -0.9349334), wk =   0.0063492
        k(  116) = (  -0.4000000   0.0000000   0.2337334), wk =   0.0063492
        k(  117) = (  -0.4000000   0.0000000   0.4674667), wk =   0.0063492
        k(  118) = (  -0.4000000   0.0000000   0.7012001), wk =   0.0063492
        k(  119) = (  -0.4000000   0.0000000   0.9349334), wk =   0.0063492
        k(  120) = (  -0.4000000   0.2390555   0.0000000), wk =   0.0063492
        k(  121) = (  -0.4000000  -0.2390555   0.2337334), wk =   0.0063492
        k(  122) = (  -0.4000000   0.2390555  -0.2337334), wk =   0.0063492
        k(  123) = (   0.4000000  -0.2390555  -0.2337334), wk =   0.0063492
        k(  124) = (  -0.4000000  -0.2390555   0.4674667), wk =   0.0063492
        k(  125) = (  -0.4000000   0.2390555  -0.4674667), wk =   0.0063492
        k(  126) = (   0.4000000  -0.2390555  -0.4674667), wk =   0.0063492
        k(  127) = (  -0.4000000  -0.2390555   0.7012001), wk =   0.0063492
        k(  128) = (  -0.4000000   0.2390555  -0.7012001), wk =   0.0063492
        k(  129) = (   0.4000000  -0.2390555  -0.7012001), wk =   0.0063492
        k(  130) = (  -0.4000000  -0.2390555   0.9349334), wk =   0.0063492
        k(  131) = (  -0.4000000   0.2390555  -0.9349334), wk =   0.0063492
        k(  132) = (   0.4000000  -0.2390555  -0.9349334), wk =   0.0063492
        k(  133) = (  -0.4000000   0.4781110   0.0000000), wk =   0.0063492
        k(  134) = (  -0.4000000  -0.4781110   0.2337334), wk =   0.0063492
        k(  135) = (  -0.4000000   0.4781110  -0.2337334), wk =   0.0063492
        k(  136) = (   0.4000000  -0.4781110  -0.2337334), wk =   0.0063492
        k(  137) = (  -0.4000000  -0.4781110   0.4674667), wk =   0.0063492
        k(  138) = (  -0.4000000   0.4781110  -0.4674667), wk =   0.0063492
        k(  139) = (   0.4000000  -0.4781110  -0.4674667), wk =   0.0063492
        k(  140) = (  -0.4000000  -0.4781110   0.7012001), wk =   0.0063492
        k(  141) = (  -0.4000000   0.4781110  -0.7012001), wk =   0.0063492
        k(  142) = (   0.4000000  -0.4781110  -0.7012001), wk =   0.0063492
        k(  143) = (  -0.4000000  -0.4781110   0.9349334), wk =   0.0063492
        k(  144) = (  -0.4000000   0.4781110  -0.9349334), wk =   0.0063492
        k(  145) = (   0.4000000  -0.4781110  -0.9349334), wk =   0.0063492
        k(  146) = (  -0.4000000   0.7171664   0.0000000), wk =   0.0063492
        k(  147) = (  -0.4000000  -0.7171664   0.2337334), wk =   0.0063492
        k(  148) = (  -0.4000000   0.7171664  -0.2337334), wk =   0.0063492
        k(  149) = (   0.4000000  -0.7171664  -0.2337334), wk =   0.0063492
        k(  150) = (  -0.4000000  -0.7171664   0.4674667), wk =   0.0063492
        k(  151) = (  -0.4000000   0.7171664  -0.4674667), wk =   0.0063492
        k(  152) = (   0.4000000  -0.7171664  -0.4674667), wk =   0.0063492
        k(  153) = (  -0.4000000  -0.7171664   0.7012001), wk =   0.0063492
        k(  154) = (  -0.4000000   0.7171664  -0.7012001), wk =   0.0063492
        k(  155) = (   0.4000000  -0.7171664  -0.7012001), wk =   0.0063492
        k(  156) = (  -0.4000000  -0.7171664   0.9349334), wk =   0.0063492
        k(  157) = (  -0.4000000   0.7171664  -0.9349334), wk =   0.0063492
        k(  158) = (   0.4000000  -0.7171664  -0.9349334), wk =   0.0063492

                       cryst. coord.
        k(    1) = (   0.0000000   0.0000000   0.0000000), wk =   0.0031746
        k(    2) = (   0.0000000   0.0000000   0.1111111), wk =   0.0063492
        k(    3) = (   0.0000000   0.0000000   0.2222222), wk =   0.0063492
        k(    4) = (   0.0000000   0.0000000   0.3333333), wk =   0.0063492
        k(    5) = (   0.0000000   0.0000000   0.4444444), wk =   0.0063492
        k(    6) = (   0.0000000   0.1428571   0.0000000), wk =   0.0063492
        k(    7) = (   0.0000000   0.1428571   0.1111111), wk =   0.0063492
        k(    8) = (   0.0000000   0.1428571   0.2222222), wk =   0.0063492
        k(    9) = (   0.0000000   0.1428571   0.3333333), wk =   0.0063492
        k(   10) = (   0.0000000   0.1428571   0.4444444), wk =   0.0063492
        k(   11) = (   0.0000000   0.2857143   0.0000000), wk =   0.0063492
        k(   12) = (   0.0000000   0.2857143   0.1111111), wk =   0.0063492
        k(   13) = (   0.0000000   0.2857143   0.2222222), wk =   0.0063492
        k(   14) = (   0.0000000   0.2857143   0.3333333), wk =   0.0063492
        k(   15) = (   0.0000000   0.2857143   0.4444444), wk =   0.0063492
        k(   16) = (   0.0000000   0.4285714   0.0000000), wk =   0.0063492
        k(   17) = (   0.0000000   0.4285714   0.1111111), wk =   0.0063492
        k(   18) = (   0.0000000   0.4285714   0.2222222), wk =   0.0063492
        k(   19) = (   0.0000000   0.4285714   0.3333333), wk =   0.0063492
        k(   20) = (   0.0000000   0.4285714   0.4444444), wk =   0.0063492
        k(   21) = (   0.2000000   0.0000000   0.0000000), wk =   0.0063492
        k(   22) = (   0.2000000   0.0000000   0.1111111), wk =   0.0063492
        k(   23) = (   0.2000000   0.0000000   0.2222222), wk =   0.0063492
        k(   24) = (   0.2000000   0.0000000   0.3333333), wk =   0.0063492
        k(   25) = (   0.2000000   0.0000000   0.4444444), wk =   0.0063492
        k(   26) = (   0.2000000   0.1428571   0.0000000), wk =   0.0063492
        k(   27) = (   0.2000000   0.1428571   0.1111111), wk =   0.0063492
        k(   28) = (   0.2000000   0.1428571   0.2222222), wk =   0.0063492
        k(   29) = (   0.2000000   0.1428571   0.3333333), wk =   0.0063492
        k(   30) = (   0.2000000   0.1428571   0.4444444), wk =   0.0063492
        k(   31) = (   0.2000000   0.2857143   0.0000000), wk =   0.0063492
        k(   32) = (   0.2000000   0.2857143   0.1111111), wk =   0.0063492
        k(   33) = (   0.2000000   0.2857143   0.2222222), wk =   0.0063492
        k(   34) = (   0.2000000   0.2857143   0.3333333), wk =   0.0063492
        k(   35) = (   0.2000000   0.2857143   0.4444444), wk =   0.0063492
        k(   36) = (   0.2000000   0.4285714   0.0000000), wk =   0.0063492
        k(   37) = (   0.2000000   0.4285714   0.1111111), wk =   0.0063492
        k(   38) = (   0.2000000   0.4285714   0.2222222), wk =   0.0063492
        k(   39) = (   0.2000000   0.4285714   0.3333333), wk =   0.0063492
        k(   40) = (   0.2000000   0.4285714   0.4444444), wk =   0.0063492
        k(   41) = (   0.4000000   0.0000000   0.0000000), wk =   0.0063492
        k(   42) = (   0.4000000   0.0000000   0.1111111), wk =   0.0063492
        k(   43) = (   0.4000000   0.0000000   0.2222222), wk =   0.0063492
        k(   44) = (   0.4000000   0.0000000   0.3333333), wk =   0.0063492
        k(   45) = (   0.4000000   0.0000000   0.4444444), wk =   0.0063492
        k(   46) = (   0.4000000   0.1428571   0.0000000), wk =   0.0063492
        k(   47) = (   0.4000000   0.1428571   0.1111111), wk =   0.0063492
        k(   48) = (   0.4000000   0.1428571   0.2222222), wk =   0.0063492
        k(   49) = (   0.4000000   0.1428571   0.3333333), wk =   0.0063492
        k(   50) = (   0.4000000   0.1428571   0.4444444), wk =   0.0063492
        k(   51) = (   0.4000000   0.2857143   0.0000000), wk =   0.0063492
        k(   52) = (   0.4000000   0.2857143   0.1111111), wk =   0.0063492
        k(   53) = (   0.4000000   0.2857143   0.2222222), wk =   0.0063492
        k(   54) = (   0.4000000   0.2857143   0.3333333), wk =   0.0063492
        k(   55) = (   0.4000000   0.2857143   0.4444444), wk =   0.0063492
        k(   56) = (   0.4000000   0.4285714   0.0000000), wk =   0.0063492
        k(   57) = (   0.4000000   0.4285714   0.1111111), wk =   0.0063492
        k(   58) = (   0.4000000   0.4285714   0.2222222), wk =   0.0063492
        k(   59) = (   0.4000000   0.4285714   0.3333333), wk =   0.0063492
        k(   60) = (   0.4000000   0.4285714   0.4444444), wk =   0.0063492
        k(   61) = (   0.0000000  -0.1428571   0.1111111), wk =   0.0063492
        k(   62) = (   0.0000000  -0.1428571   0.2222222), wk =   0.0063492
        k(   63) = (   0.0000000  -0.1428571   0.3333333), wk =   0.0063492
        k(   64) = (   0.0000000  -0.1428571   0.4444444), wk =   0.0063492
        k(   65) = (   0.0000000  -0.2857143   0.1111111), wk =   0.0063492
        k(   66) = (   0.0000000  -0.2857143   0.2222222), wk =   0.0063492
        k(   67) = (   0.0000000  -0.2857143   0.3333333), wk =   0.0063492
        k(   68) = (   0.0000000  -0.2857143   0.4444444), wk =   0.0063492
        k(   69) = (   0.0000000  -0.4285714   0.1111111), wk =   0.0063492
        k(   70) = (   0.0000000  -0.4285714   0.2222222), wk =   0.0063492
        k(   71) = (   0.0000000  -0.4285714   0.3333333), wk =   0.0063492
        k(   72) = (   0.0000000  -0.4285714   0.4444444), wk =   0.0063492
        k(   73) = (  -0.2000000   0.0000000   0.1111111), wk =   0.0063492
        k(   74) = (  -0.2000000   0.0000000   0.2222222), wk =   0.0063492
        k(   75) = (  -0.2000000   0.0000000   0.3333333), wk =   0.0063492
        k(   76) = (  -0.2000000   0.0000000   0.4444444), wk =   0.0063492
        k(   77) = (  -0.2000000   0.1428571   0.0000000), wk =   0.0063492
        k(   78) = (  -0.2000000  -0.1428571   0.1111111), wk =   0.0063492
        k(   79) = (  -0.2000000   0.1428571  -0.1111111), wk =   0.0063492
        k(   80) = (   0.2000000  -0.1428571  -0.1111111), wk =   0.0063492
        k(   81) = (  -0.2000000  -0.1428571   0.2222222), wk =   0.0063492
        k(   82) = (  -0.2000000   0.1428571  -0.2222222), wk =   0.0063492
        k(   83) = (   0.2000000  -0.1428571  -0.2222222), wk =   0.0063492
        k(   84) = (  -0.2000000  -0.1428571   0.3333333), wk =   0.0063492
        k(   85) = (  -0.2000000   0.1428571  -0.3333333), wk =   0.0063492
        k(   86) = (   0.2000000  -0.1428571  -0.3333333), wk =   0.0063492
        k(   87) = (  -0.2000000  -0.1428571   0.4444444), wk =   0.0063492
        k(   88) = (  -0.2000000   0.1428571  -0.4444444), wk =   0.0063492
        k(   89) = (   0.2000000  -0.1428571  -0.4444444), wk =   0.0063492
        k(   90) = (  -0.2000000   0.2857143   0.0000000), wk =   0.0063492
        k(   91) = (  -0.2000000  -0.2857143   0.1111111), wk =   0.0063492
        k(   92) = (  -0.2000000   0.2857143  -0.1111111), wk =   0.0063492
        k(   93) = (   0.2000000  -0.2857143  -0.1111111), wk =   0.0063492
        k(   94) = (  -0.2000000  -0.2857143   0.2222222), wk =   0.0063492
        k(   95) = (  -0.2000000   0.2857143  -0.2222222), wk =   0.0063492
        k(   96) = (   0.2000000  -0.2857143  -0.2222222), wk =   0.0063492
        k(   97) = (  -0.2000000  -0.2857143   0.3333333), wk =   0.0063492
        k(   98) = (  -0.2000000   0.2857143  -0.3333333), wk =   0.0063492
        k(   99) = (   0.2000000  -0.2857143  -0.3333333), wk =   0.0063492
        k(  100) = (  -0.2000000  -0.2857143   0.4444444), wk =   0.0063492
        k(  101) = (  -0.2000000   0.2857143  -0.4444444), wk =   0.0063492
        k(  102) = (   0.2000000  -0.2857143  -0.4444444), wk =   0.0063492
        k(  103) = (  -0.2000000   0.4285714   0.0000000), wk =   0.0063492
        k(  104) = (  -0.2000000  -0.4285714   0.1111111), wk =   0.0063492
        k(  105) = (  -0.2000000   0.4285714  -0.1111111), wk =   0.0063492
        k(  106) = (   0.2000000  -0.4285714  -0.1111111), wk =   0.0063492
        k(  107) = (  -0.2000000  -0.4285714   0.2222222), wk =   0.0063492
        k(  108) = (  -0.2000000   0.4285714  -0.2222222), wk =   0.0063492
        k(  109) = (   0.2000000  -0.4285714  -0.2222222), wk =   0.0063492
        k(  110) = (  -0.2000000  -0.4285714   0.3333333), wk =   0.0063492
        k(  111) = (  -0.2000000   0.4285714  -0.3333333), wk =   0.0063492
        k(  112) = (   0.2000000  -0.4285714  -0.3333333), wk =   0.0063492
        k(  113) = (  -0.2000000  -0.4285714   0.4444444), wk =   0.0063492
        k(  114) = (  -0.2000000   0.4285714  -0.4444444), wk =   0.0063492
        k(  115) = (   0.2000000  -0.4285714  -0.4444444), wk =   0.0063492
        k(  116) = (  -0.4000000   0.0000000   0.1111111), wk =   0.0063492
        k(  117) = (  -0.4000000   0.0000000   0.2222222), wk =   0.0063492
        k(  118) = (  -0.4000000   0.0000000   0.3333333), wk =   0.0063492
        k(  119) = (  -0.4000000   0.0000000   0.4444444), wk =   0.0063492
        k(  120) = (  -0.4000000   0.1428571   0.0000000), wk =   0.0063492
        k(  121) = (  -0.4000000  -0.1428571   0.1111111), wk =   0.0063492
        k(  122) = (  -0.4000000   0.1428571  -0.1111111), wk =   0.0063492
        k(  123) = (   0.4000000  -0.1428571  -0.1111111), wk =   0.0063492
        k(  124) = (  -0.4000000  -0.1428571   0.2222222), wk =   0.0063492
        k(  125) = (  -0.4000000   0.1428571  -0.2222222), wk =   0.0063492
        k(  126) = (   0.4000000  -0.1428571  -0.2222222), wk =   0.0063492
        k(  127) = (  -0.4000000  -0.1428571   0.3333333), wk =   0.0063492
        k(  128) = (  -0.4000000   0.1428571  -0.3333333), wk =   0.0063492
        k(  129) = (   0.4000000  -0.1428571  -0.3333333), wk =   0.0063492
        k(  130) = (  -0.4000000  -0.1428571   0.4444444), wk =   0.0063492
        k(  131) = (  -0.4000000   0.1428571  -0.4444444), wk =   0.0063492
        k(  132) = (   0.4000000  -0.1428571  -0.4444444), wk =   0.0063492
        k(  133) = (  -0.4000000   0.2857143   0.0000000), wk =   0.0063492
        k(  134) = (  -0.4000000  -0.2857143   0.1111111), wk =   0.0063492
        k(  135) = (  -0.4000000   0.2857143  -0.1111111), wk =   0.0063492
        k(  136) = (   0.4000000  -0.2857143  -0.1111111), wk =   0.0063492
        k(  137) = (  -0.4000000  -0.2857143   0.2222222), wk =   0.0063492
        k(  138) = (  -0.4000000   0.2857143  -0.2222222), wk =   0.0063492
        k(  139) = (   0.4000000  -0.2857143  -0.2222222), wk =   0.0063492
        k(  140) = (  -0.4000000  -0.2857143   0.3333333), wk =   0.0063492
        k(  141) = (  -0.4000000   0.2857143  -0.3333333), wk =   0.0063492
        k(  142) = (   0.4000000  -0.2857143  -0.3333333), wk =   0.0063492
        k(  143) = (  -0.4000000  -0.2857143   0.4444444), wk =   0.0063492
        k(  144) = (  -0.4000000   0.2857143  -0.4444444), wk =   0.0063492
        k(  145) = (   0.4000000  -0.2857143  -0.4444444), wk =   0.0063492
        k(  146) = (  -0.4000000   0.4285714   0.0000000), wk =   0.0063492
        k(  147) = (  -0.4000000  -0.4285714   0.1111111), wk =   0.0063492
        k(  148) = (  -0.4000000   0.4285714  -0.1111111), wk =   0.0063492
        k(  149) = (   0.4000000  -0.4285714  -0.1111111), wk =   0.0063492
        k(  150) = (  -0.4000000  -0.4285714   0.2222222), wk =   0.0063492
        k(  151) = (  -0.4000000   0.4285714  -0.2222222), wk =   0.0063492
        k(  152) = (   0.4000000  -0.4285714  -0.2222222), wk =   0.0063492
        k(  153) = (  -0.4000000  -0.4285714   0.3333333), wk =   0.0063492
        k(  154) = (  -0.4000000   0.4285714  -0.3333333), wk =   0.0063492
        k(  155) = (   0.4000000  -0.4285714  -0.3333333), wk =   0.0063492
        k(  156) = (  -0.4000000  -0.4285714   0.4444444), wk =   0.0063492
        k(  157) = (  -0.4000000   0.4285714  -0.4444444), wk =   0.0063492
        k(  158) = (   0.4000000  -0.4285714  -0.4444444), wk =   0.0063492

     Dense  grid:  1360823 G-vectors     FFT dimensions: ( 216, 125, 100)

     Smooth grid:   306739 G-vectors     FFT dimensions: ( 128,  80,  64)

     Dynamical RAM for                 wfc:       4.17 MB

     Dynamical RAM for     wfc (w. buffer):    1321.21 MB

     Dynamical RAM for           str. fact:       5.19 MB

     Dynamical RAM for           local pot:       0.00 MB

     Dynamical RAM for          nlocal pot:      10.24 MB

     Dynamical RAM for                qrad:      10.54 MB

     Dynamical RAM for          rho,v,vnew:      16.44 MB

     Dynamical RAM for               rhoin:       5.48 MB

     Dynamical RAM for            rho*nmix:      41.53 MB

     Dynamical RAM for           G-vectors:       5.01 MB

     Dynamical RAM for          h,s,v(r/c):       2.38 MB

     Dynamical RAM for          <psi|beta>:       0.49 MB

     Dynamical RAM for                 psi:       8.34 MB

     Dynamical RAM for                hpsi:       8.34 MB

     Dynamical RAM for                spsi:       8.34 MB

     Dynamical RAM for      wfcinit/wfcrot:      10.45 MB

     Dynamical RAM for           addusdens:     263.45 MB

     Dynamical RAM for          addusforce:     302.51 MB

     Dynamical RAM for         addusstress:     262.80 MB

     Estimated static dynamical RAM per process >       1.40 GB

     Estimated max dynamical RAM per process >       1.69 GB

     Estimated total dynamical RAM >      27.08 GB

     Check: negative core charge=   -0.000003
     Generating pointlists ...
     new r_m :   0.0766 (alat units)  1.5309 (a.u.) for type    1
     new r_m :   0.0867 (alat units)  1.7338 (a.u.) for type    2
     new r_m :   0.0609 (alat units)  1.2169 (a.u.) for type    3
     new r_m :   0.0609 (alat units)  1.2169 (a.u.) for type    4

     Initial potential from superposition of free atoms

     starting charge  188.99132, renormalised to  189.00000
     Starting wfcs are  137 randomized atomic wfcs
     Checking if some PAW data can be deallocated... 
       PAW data deallocated on   13 nodes for type:  1
       PAW data deallocated on    4 nodes for type:  3

     total cpu time spent up to now is      106.8 secs

     Self-consistent Calculation

     iteration #  1     ecut=   100.00 Ry     beta= 0.40
     Davidson diagonalization with overlap
     ethr =  1.00E-02,  avg # of iterations =  3.0

     negative rho (up, down):  0.000E+00 6.838E-05

     total cpu time spent up to now is      357.1 secs

     total energy              =   -2123.80855042 Ry
     estimated scf accuracy    <       6.95492874 Ry

     total magnetization       =    19.00 Bohr mag/cell
     absolute magnetization    =    19.00 Bohr mag/cell

     iteration #  2     ecut=   100.00 Ry     beta= 0.40
     Davidson diagonalization with overlap
     ethr =  3.68E-03,  avg # of iterations =  2.0

     negative rho (up, down):  0.000E+00 3.725E-05

     total cpu time spent up to now is      591.1 secs

     total energy              =   -2121.65474742 Ry
     estimated scf accuracy    <      26.86363957 Ry

     total magnetization       =     8.77 Bohr mag/cell
     absolute magnetization    =     9.64 Bohr mag/cell

     iteration #  3     ecut=   100.00 Ry     beta= 0.40
     Davidson diagonalization with overlap
     ethr =  3.68E-03,  avg # of iterations =  2.0

     negative rho (up, down):  0.000E+00 2.741E-05

     total cpu time spent up to now is      793.7 secs

     total energy              =   -2124.37503844 Ry
     estimated scf accuracy    <      29.54467029 Ry

     total magnetization       =    11.00 Bohr mag/cell
     absolute magnetization    =    12.08 Bohr mag/cell

     iteration #  4     ecut=   100.00 Ry     beta= 0.40
     Davidson diagonalization with overlap
     ethr =  3.68E-03,  avg # of iterations =  2.0

     negative rho (up, down):  0.000E+00 6.696E-05

     total cpu time spent up to now is      993.9 secs

     total energy              =   -2125.45282116 Ry
     estimated scf accuracy    <      11.26268959 Ry

     total magnetization       =    14.75 Bohr mag/cell
     absolute magnetization    =    15.03 Bohr mag/cell

     iteration #  5     ecut=   100.00 Ry     beta= 0.40
     Davidson diagonalization with overlap
     ethr =  3.68E-03,  avg # of iterations =  1.2

     negative rho (up, down):  0.000E+00 8.707E-05

     total cpu time spent up to now is     1173.2 secs

     total energy              =   -2125.63390389 Ry
     estimated scf accuracy    <       7.34620346 Ry

     total magnetization       =    15.05 Bohr mag/cell
     absolute magnetization    =    15.21 Bohr mag/cell

     iteration #  6     ecut=   100.00 Ry     beta= 0.40
     Davidson diagonalization with overlap
     ethr =  3.68E-03,  avg # of iterations =  1.0

     negative rho (up, down):  0.000E+00 1.387E-04

     total cpu time spent up to now is     1347.1 secs

     total energy              =   -2125.92896626 Ry
     estimated scf accuracy    <       1.31905501 Ry

     total magnetization       =    19.00 Bohr mag/cell
     absolute magnetization    =    19.00 Bohr mag/cell

     iteration #  7     ecut=   100.00 Ry     beta= 0.40
     Davidson diagonalization with overlap
     ethr =  6.98E-04,  avg # of iterations =  1.5

     negative rho (up, down):  0.000E+00 2.778E-04

     total cpu time spent up to now is     1534.1 secs

     total energy              =   -2126.00785740 Ry
     estimated scf accuracy    <       0.81485110 Ry

     total magnetization       =    18.93 Bohr mag/cell
     absolute magnetization    =    18.93 Bohr mag/cell

     iteration #  8     ecut=   100.00 Ry     beta= 0.40
     Davidson diagonalization with overlap
     ethr =  4.31E-04,  avg # of iterations =  1.0

     negative rho (up, down):  0.000E+00 4.047E-04

     total cpu time spent up to now is     1709.1 secs

     total energy              =   -2126.00268118 Ry
     estimated scf accuracy    <       0.64845187 Ry

     total magnetization       =    19.00 Bohr mag/cell
     absolute magnetization    =    19.00 Bohr mag/cell

     iteration #  9     ecut=   100.00 Ry     beta= 0.40
     Davidson diagonalization with overlap
     ethr =  3.43E-04,  avg # of iterations =  1.0

     negative rho (up, down):  0.000E+00 5.600E-04

     total cpu time spent up to now is     1884.0 secs

     total energy              =   -2126.00240010 Ry
     estimated scf accuracy    <       0.30751542 Ry

     total magnetization       =    19.00 Bohr mag/cell
     absolute magnetization    =    19.01 Bohr mag/cell

     iteration # 10     ecut=   100.00 Ry     beta= 0.40
     Davidson diagonalization with overlap
     ethr =  1.63E-04,  avg # of iterations =  3.0

     negative rho (up, down):  0.000E+00 8.354E-04

     total cpu time spent up to now is     2085.6 secs

     total energy              =   -2125.99889942 Ry
     estimated scf accuracy    <       0.19965376 Ry

     total magnetization       =    19.00 Bohr mag/cell
     absolute magnetization    =    19.01 Bohr mag/cell

     iteration # 11     ecut=   100.00 Ry     beta= 0.40
     Davidson diagonalization with overlap
     c_bands:  1 eigenvalues not converged
     c_bands:  1 eigenvalues not converged
     c_bands:  1 eigenvalues not converged
     c_bands:  1 eigenvalues not converged
     c_bands:  1 eigenvalues not converged
     ethr =  1.06E-04,  avg # of iterations = 10.4

     negative rho (up, down):  0.000E+00 9.184E-04

     total cpu time spent up to now is     2359.7 secs

     total energy              =   -2126.00281582 Ry
     estimated scf accuracy    <       0.49701069 Ry

     total magnetization       =    19.00 Bohr mag/cell
     absolute magnetization    =    19.03 Bohr mag/cell

     iteration # 12     ecut=   100.00 Ry     beta= 0.40
     Davidson diagonalization with overlap
     ethr =  1.06E-04,  avg # of iterations =  1.2

     negative rho (up, down):  0.000E+00 9.164E-04

     total cpu time spent up to now is     2538.3 secs

     total energy              =   -2126.01055532 Ry
     estimated scf accuracy    <       0.23917140 Ry

     total magnetization       =    19.00 Bohr mag/cell
     absolute magnetization    =    19.03 Bohr mag/cell

     iteration # 13     ecut=   100.00 Ry     beta= 0.40
     Davidson diagonalization with overlap
     ethr =  1.06E-04,  avg # of iterations =  1.0

     negative rho (up, down):  0.000E+00 9.336E-04

     total cpu time spent up to now is     2713.1 secs

     total energy              =   -2126.01829999 Ry
     estimated scf accuracy    <       0.27960664 Ry

     total magnetization       =    19.00 Bohr mag/cell
     absolute magnetization    =    19.03 Bohr mag/cell

     iteration # 14     ecut=   100.00 Ry     beta= 0.40
     Davidson diagonalization with overlap
     ethr =  1.06E-04,  avg # of iterations =  1.0

     negative rho (up, down):  0.000E+00 9.273E-04

     total cpu time spent up to now is     2886.4 secs

     total energy              =   -2126.01538958 Ry
     estimated scf accuracy    <       0.20734137 Ry

     total magnetization       =    19.00 Bohr mag/cell
     absolute magnetization    =    19.04 Bohr mag/cell

     iteration # 15     ecut=   100.00 Ry     beta= 0.40
     Davidson diagonalization with overlap
     ethr =  1.06E-04,  avg # of iterations =  1.0

     negative rho (up, down):  0.000E+00 9.332E-04

     total cpu time spent up to now is     3060.5 secs

     total energy              =   -2126.01666496 Ry
     estimated scf accuracy    <       0.02125190 Ry

     total magnetization       =    19.00 Bohr mag/cell
     absolute magnetization    =    19.04 Bohr mag/cell

     iteration # 16     ecut=   100.00 Ry     beta= 0.40
     Davidson diagonalization with overlap
     c_bands:  1 eigenvalues not converged
     c_bands:  1 eigenvalues not converged
     c_bands:  1 eigenvalues not converged
     c_bands:  1 eigenvalues not converged
     c_bands:  1 eigenvalues not converged
     c_bands:  1 eigenvalues not converged
     c_bands:  1 eigenvalues not converged
     c_bands:  1 eigenvalues not converged
     c_bands:  1 eigenvalues not converged
     c_bands:  1 eigenvalues not converged
     c_bands:  2 eigenvalues not converged
     c_bands:  1 eigenvalues not converged
     c_bands:  1 eigenvalues not converged
     c_bands:  1 eigenvalues not converged
     c_bands:  1 eigenvalues not converged
     c_bands:  1 eigenvalues not converged
     c_bands:  1 eigenvalues not converged
     c_bands:  1 eigenvalues not converged
     c_bands:  1 eigenvalues not converged
     c_bands:  1 eigenvalues not converged
     c_bands:  1 eigenvalues not converged
     c_bands:  1 eigenvalues not converged
     c_bands:  1 eigenvalues not converged
     c_bands:  2 eigenvalues not converged
     c_bands:  1 eigenvalues not converged
     c_bands:  1 eigenvalues not converged
     c_bands:  2 eigenvalues not converged
     c_bands:  1 eigenvalues not converged
     c_bands:  1 eigenvalues not converged
     ethr =  1.12E-05,  avg # of iterations = 11.0

     negative rho (up, down):  0.000E+00 9.475E-04

     total cpu time spent up to now is     3343.6 secs

     total energy              =   -2126.01712421 Ry
     estimated scf accuracy    <       0.00316946 Ry

     total magnetization       =    19.00 Bohr mag/cell
     absolute magnetization    =    19.04 Bohr mag/cell

     iteration # 17     ecut=   100.00 Ry     beta= 0.40
     Davidson diagonalization with overlap
     c_bands:  1 eigenvalues not converged
     c_bands:  1 eigenvalues not converged
     c_bands:  1 eigenvalues not converged
     c_bands:  1 eigenvalues not converged
     c_bands:  1 eigenvalues not converged
     c_bands:  1 eigenvalues not converged
     c_bands:  1 eigenvalues not converged
     c_bands:  1 eigenvalues not converged
     c_bands:  1 eigenvalues not converged
     c_bands:  1 eigenvalues not converged
     c_bands:  1 eigenvalues not converged
     c_bands:  1 eigenvalues not converged
     c_bands:  1 eigenvalues not converged
     c_bands:  1 eigenvalues not converged
     c_bands:  1 eigenvalues not converged
     c_bands:  1 eigenvalues not converged
     c_bands:  1 eigenvalues not converged
     c_bands:  1 eigenvalues not converged
     c_bands:  1 eigenvalues not converged
     c_bands:  1 eigenvalues not converged
     ethr =  1.68E-06,  avg # of iterations = 10.6

     negative rho (up, down):  0.000E+00 9.461E-04

     total cpu time spent up to now is     3636.6 secs

     total energy              =   -2126.01745538 Ry
     estimated scf accuracy    <       0.00090212 Ry

     total magnetization       =    19.00 Bohr mag/cell
     absolute magnetization    =    19.05 Bohr mag/cell

     iteration # 18     ecut=   100.00 Ry     beta= 0.40
     Davidson diagonalization with overlap
     c_bands:  1 eigenvalues not converged
     ethr =  4.77E-07,  avg # of iterations =  3.2

     negative rho (up, down):  0.000E+00 9.373E-04

     total cpu time spent up to now is     3855.0 secs

     total energy              =   -2126.01758135 Ry
     estimated scf accuracy    <       0.00042497 Ry

     total magnetization       =    19.00 Bohr mag/cell
     absolute magnetization    =    19.05 Bohr mag/cell

     iteration # 19     ecut=   100.00 Ry     beta= 0.40
     Davidson diagonalization with overlap
     ethr =  2.25E-07,  avg # of iterations =  1.8

     negative rho (up, down):  0.000E+00 9.330E-04

     total cpu time spent up to now is     4048.7 secs

     total energy              =   -2126.01760410 Ry
     estimated scf accuracy    <       0.00029446 Ry

     total magnetization       =    19.00 Bohr mag/cell
     absolute magnetization    =    19.05 Bohr mag/cell

     iteration # 20     ecut=   100.00 Ry     beta= 0.40
     Davidson diagonalization with overlap
     ethr =  1.56E-07,  avg # of iterations =  1.1

     negative rho (up, down):  0.000E+00 9.332E-04

     total cpu time spent up to now is     4226.2 secs

     total energy              =   -2126.01761580 Ry
     estimated scf accuracy    <       0.00012817 Ry

     total magnetization       =    19.00 Bohr mag/cell
     absolute magnetization    =    19.05 Bohr mag/cell

     iteration # 21     ecut=   100.00 Ry     beta= 0.40
     Davidson diagonalization with overlap
     ethr =  6.78E-08,  avg # of iterations =  2.7

     negative rho (up, down):  0.000E+00 9.300E-04

     total cpu time spent up to now is     4436.8 secs

     total energy              =   -2126.01763267 Ry
     estimated scf accuracy    <       0.00002181 Ry

     total magnetization       =    19.00 Bohr mag/cell
     absolute magnetization    =    19.05 Bohr mag/cell

     iteration # 22     ecut=   100.00 Ry     beta= 0.40
     Davidson diagonalization with overlap
     ethr =  1.15E-08,  avg # of iterations =  4.7

     negative rho (up, down):  0.000E+00 9.286E-04

     total cpu time spent up to now is     4751.7 secs

     total energy              =   -2126.01764346 Ry
     estimated scf accuracy    <       0.00000870 Ry

     total magnetization       =    19.00 Bohr mag/cell
     absolute magnetization    =    19.05 Bohr mag/cell

     iteration # 23     ecut=   100.00 Ry     beta= 0.40
     Davidson diagonalization with overlap
     ethr =  4.60E-09,  avg # of iterations =  1.1

     negative rho (up, down):  0.000E+00 9.288E-04

     total cpu time spent up to now is     4927.1 secs

     total energy              =   -2126.01764409 Ry
     estimated scf accuracy    <       0.00000436 Ry

     total magnetization       =    19.00 Bohr mag/cell
     absolute magnetization    =    19.05 Bohr mag/cell

     iteration # 24     ecut=   100.00 Ry     beta= 0.40
     Davidson diagonalization with overlap
     ethr =  2.31E-09,  avg # of iterations =  1.0

     negative rho (up, down):  0.000E+00 9.290E-04

     total cpu time spent up to now is     5101.9 secs

     total energy              =   -2126.01764435 Ry
     estimated scf accuracy    <       0.00000136 Ry

     total magnetization       =    19.00 Bohr mag/cell
     absolute magnetization    =    19.05 Bohr mag/cell

     iteration # 25     ecut=   100.00 Ry     beta= 0.40
     Davidson diagonalization with overlap
     ethr =  7.21E-10,  avg # of iterations =  2.0

     negative rho (up, down):  0.000E+00 9.289E-04

     total cpu time spent up to now is     5304.7 secs

     total energy              =   -2126.01764477 Ry
     estimated scf accuracy    <       0.00000111 Ry

     total magnetization       =    19.00 Bohr mag/cell
     absolute magnetization    =    19.05 Bohr mag/cell

     iteration # 26     ecut=   100.00 Ry     beta= 0.40
     Davidson diagonalization with overlap
     ethr =  5.86E-10,  avg # of iterations =  2.0

     negative rho (up, down):  0.000E+00 9.294E-04

     total cpu time spent up to now is     5504.5 secs

     total energy              =   -2126.01764491 Ry
     estimated scf accuracy    <       0.00000062 Ry

     total magnetization       =    19.00 Bohr mag/cell
     absolute magnetization    =    19.05 Bohr mag/cell

     iteration # 27     ecut=   100.00 Ry     beta= 0.40
     Davidson diagonalization with overlap
     ethr =  3.28E-10,  avg # of iterations =  1.1

     negative rho (up, down):  0.000E+00 9.295E-04

     total cpu time spent up to now is     5679.4 secs

     total energy              =   -2126.01764498 Ry
     estimated scf accuracy    <       0.00000008 Ry

     total magnetization       =    19.00 Bohr mag/cell
     absolute magnetization    =    19.05 Bohr mag/cell

     iteration # 28     ecut=   100.00 Ry     beta= 0.40
     Davidson diagonalization with overlap
     ethr =  4.41E-11,  avg # of iterations =  4.0

     negative rho (up, down):  0.000E+00 9.295E-04

     total cpu time spent up to now is     5940.0 secs

     total energy              =   -2126.01764503 Ry
     estimated scf accuracy    <       0.00000017 Ry

     total magnetization       =    19.00 Bohr mag/cell
     absolute magnetization    =    19.05 Bohr mag/cell

     iteration # 29     ecut=   100.00 Ry     beta= 0.40
     Davidson diagonalization with overlap
     ethr =  4.41E-11,  avg # of iterations =  2.0

     negative rho (up, down):  0.000E+00 9.296E-04

     total cpu time spent up to now is     6140.4 secs

     total energy              =   -2126.01764505 Ry
     estimated scf accuracy    <       0.00000002 Ry

     total magnetization       =    19.00 Bohr mag/cell
     absolute magnetization    =    19.05 Bohr mag/cell

     iteration # 30     ecut=   100.00 Ry     beta= 0.40
     Davidson diagonalization with overlap
     ethr =  1.20E-11,  avg # of iterations =  2.1

     negative rho (up, down):  0.000E+00 9.295E-04

     total cpu time spent up to now is     6342.9 secs

     total energy              =   -2126.01764505 Ry
     estimated scf accuracy    <       0.00000002 Ry

     total magnetization       =    19.00 Bohr mag/cell
     absolute magnetization    =    19.05 Bohr mag/cell

     iteration # 31     ecut=   100.00 Ry     beta= 0.40
     Davidson diagonalization with overlap
     ethr =  1.11E-11,  avg # of iterations =  2.0

     negative rho (up, down):  0.000E+00 9.295E-04

     total cpu time spent up to now is     6542.4 secs

     total energy              =   -2126.01764506 Ry
     estimated scf accuracy    <       0.00000002 Ry

     total magnetization       =    19.00 Bohr mag/cell
     absolute magnetization    =    19.05 Bohr mag/cell

     iteration # 32     ecut=   100.00 Ry     beta= 0.40
     Davidson diagonalization with overlap
     ethr =  1.06E-11,  avg # of iterations =  1.0

     negative rho (up, down):  0.000E+00 9.295E-04

     total cpu time spent up to now is     6715.3 secs

     total energy              =   -2126.01764506 Ry
     estimated scf accuracy    <          5.7E-09 Ry

     total magnetization       =    19.00 Bohr mag/cell
     absolute magnetization    =    19.05 Bohr mag/cell

     iteration # 33     ecut=   100.00 Ry     beta= 0.40
     Davidson diagonalization with overlap
     ethr =  3.00E-12,  avg # of iterations =  2.5

     negative rho (up, down):  0.000E+00 9.295E-04

     total cpu time spent up to now is     6922.6 secs

     total energy              =   -2126.01764506 Ry
     estimated scf accuracy    <          1.2E-09 Ry

     total magnetization       =    19.00 Bohr mag/cell
     absolute magnetization    =    19.05 Bohr mag/cell

     iteration # 34     ecut=   100.00 Ry     beta= 0.40
     Davidson diagonalization with overlap
     ethr =  6.46E-13,  avg # of iterations =  3.3

     negative rho (up, down):  0.000E+00 9.295E-04

     total cpu time spent up to now is     7145.1 secs

     total energy              =   -2126.01764506 Ry
     estimated scf accuracy    <          1.0E-09 Ry

     total magnetization       =    19.00 Bohr mag/cell
     absolute magnetization    =    19.05 Bohr mag/cell

     iteration # 35     ecut=   100.00 Ry     beta= 0.40
     Davidson diagonalization with overlap
     ethr =  5.51E-13,  avg # of iterations =  1.2

     negative rho (up, down):  0.000E+00 9.295E-04

     total cpu time spent up to now is     7324.3 secs

     total energy              =   -2126.01764506 Ry
     estimated scf accuracy    <          3.8E-10 Ry

     total magnetization       =    19.00 Bohr mag/cell
     absolute magnetization    =    19.05 Bohr mag/cell

     iteration # 36     ecut=   100.00 Ry     beta= 0.40
     Davidson diagonalization with overlap
     ethr =  2.02E-13,  avg # of iterations =  2.6

     negative rho (up, down):  0.000E+00 9.295E-04

     total cpu time spent up to now is     7539.7 secs

     total energy              =   -2126.01764506 Ry
     estimated scf accuracy    <          3.8E-10 Ry

     total magnetization       =    19.00 Bohr mag/cell
     absolute magnetization    =    19.05 Bohr mag/cell

     iteration # 37     ecut=   100.00 Ry     beta= 0.40
     Davidson diagonalization with overlap
     ethr =  2.01E-13,  avg # of iterations =  2.0

     negative rho (up, down):  0.000E+00 9.295E-04

     Magnetic moment per site:
     atom:    1    charge:    7.8976    magn:    0.0011    constr:    0.0000
     atom:    2    charge:   12.9798    magn:    3.6405    constr:    0.0000
     atom:    3    charge:   12.9785    magn:    3.6453    constr:    0.0000
     atom:    4    charge:   12.9826    magn:    3.6386    constr:    0.0000
     atom:    5    charge:   12.9719    magn:    3.6573    constr:    0.0000
     atom:    6    charge:    0.8794    magn:    0.0096    constr:    0.0000
     atom:    7    charge:    0.8703    magn:    0.0109    constr:    0.0000
     atom:    8    charge:    0.8804    magn:    0.0095    constr:    0.0000
     atom:    9    charge:    0.8684    magn:    0.0106    constr:    0.0000
     atom:   10    charge:    4.3046    magn:    0.1629    constr:    0.0000
     atom:   11    charge:    4.3164    magn:    0.1127    constr:    0.0000
     atom:   12    charge:    4.3037    magn:    0.1420    constr:    0.0000
     atom:   13    charge:    4.3155    magn:    0.1170    constr:    0.0000
     atom:   14    charge:    4.3118    magn:    0.1181    constr:    0.0000
     atom:   15    charge:    4.3191    magn:    0.0910    constr:    0.0000
     atom:   16    charge:    4.3144    magn:    0.1227    constr:    0.0000
     atom:   17    charge:    4.3271    magn:    0.0929    constr:    0.0000
     atom:   18    charge:    4.3150    magn:    0.1320    constr:    0.0000
     atom:   19    charge:    4.3049    magn:    0.1446    constr:    0.0000
     atom:   20    charge:    4.3069    magn:    0.1321    constr:    0.0000
     atom:   21    charge:    4.3137    magn:    0.1563    constr:    0.0000
     atom:   22    charge:    4.3198    magn:    0.1315    constr:    0.0000
     atom:   23    charge:    4.3045    magn:    0.1432    constr:    0.0000
     atom:   24    charge:    4.3092    magn:    0.1161    constr:    0.0000
     atom:   25    charge:    4.3179    magn:    0.1598    constr:    0.0000

     total cpu time spent up to now is     7739.4 secs

     End of self-consistent calculation

 ------ SPIN UP ------------


          k = 0.0000 0.0000 0.0000 ( 38251 PWs)   bands (ev):

   -85.7848 -85.7460 -85.6381 -85.6174 -51.8754 -51.8685 -51.8561 -51.8361
   -51.7811 -51.7553 -51.6947 -51.6324 -51.5805 -51.5569 -51.4502 -51.4160
   -45.4159 -17.4681 -17.4012 -17.3761 -16.4652 -16.2761 -16.2166 -16.0382
   -14.2232 -14.1082 -14.0986 -14.0098 -13.9428 -13.8965 -13.8293 -13.7863
   -13.7658 -13.7048 -13.6473 -13.5928  -4.7581  -4.4199  -4.0336  -3.9088
    -2.5951  -2.5111  -2.1797  -2.1156  -1.8314  -1.7063  -1.6375  -1.5783
    -1.5267  -1.3922  -1.3235  -1.2012  -0.6197  -0.5546  -0.2936  -0.0931
    -0.0859  -0.0261   0.0467   0.1364   0.3198   0.3293   0.4817   0.5365
     0.6996   0.7980   0.8393   0.9080   1.0606   1.0930   1.2822   1.3396
     1.4734   1.5224   1.5695   1.6877   1.7724   1.8128   1.8915   1.9238
     2.0011   2.2099   2.2880   2.3484   2.4896   2.5148   2.5749   2.7041
     2.7484   2.9393   2.9881   3.0095   3.1839   3.2606   3.3311   3.4091
     3.4794   3.5003   3.5732   3.6378   3.7512   3.8156   4.1298   4.2133
     8.1467   9.9581  10.4380  10.8850  11.2493  12.1503  12.2607  12.3277
    12.4346  12.5219

     occupation numbers 
     1.0000   1.0000   1.0000   1.0000   1.0000   1.0000   1.0000   1.0000
     1.0000   1.0000   1.0000   1.0000   1.0000   1.0000   1.0000   1.0000
     1.0000   1.0000   1.0000   1.0000   1.0000   1.0000   1.0000   1.0000
     1.0000   1.0000   1.0000   1.0000   1.0000   1.0000   1.0000   1.0000
     1.0000   1.0000   1.0000   1.0000   1.0000   1.0000   1.0000   1.0000
     1.0000   1.0000   1.0000   1.0000   1.0000   1.0000   1.0000   1.0000
     1.0000   1.0000   1.0000   1.0000   1.0000   1.0000   1.0000   1.0000
     1.0000   1.0000   1.0000   1.0000   1.0000   1.0000   1.0000   1.0000
     1.0000   1.0000   1.0000   1.0000   1.0000   1.0000   1.0000   1.0000
     1.0000   1.0000   1.0000   1.0000   1.0000   1.0000   1.0000   1.0000
     1.0000   1.0000   1.0000   1.0000   1.0000   1.0000   1.0000   1.0000
     1.0000   1.0000   1.0000   1.0000   1.0000   1.0000   1.0000   1.0000
     1.0000   1.0000   1.0000   1.0000   1.0000   1.0000   1.0000   1.0000
     0.0000   0.0000   0.0000   0.0000   0.0000   0.0000   0.0000   0.0000
     0.0000   0.0000

          k = 0.0000 0.0000 0.2337 ( 38277 PWs)   bands (ev):

   -85.7848 -85.7460 -85.6381 -85.6174 -51.8754 -51.8685 -51.8561 -51.8361
   -51.7811 -51.7553 -51.6947 -51.6324 -51.5805 -51.5569 -51.4502 -51.4160
   -45.4159 -17.4677 -17.4013 -17.3776 -16.4515 -16.2712 -16.2074 -16.0394
   -14.2325 -14.1356 -14.0814 -14.0114 -13.9439 -13.8953 -13.8402 -13.7937
   -13.7687 -13.7052 -13.6545 -13.5910  -4.7293  -4.4071  -4.0405  -3.8898
    -2.5774  -2.4993  -2.1936  -2.0892  -1.8298  -1.7069  -1.6213  -1.5815
    -1.4923  -1.4041  -1.3512  -1.1865  -0.6092  -0.5447  -0.2871  -0.1278
    -0.0871  -0.0303   0.0744   0.1144   0.3073   0.3680   0.4703   0.5221
     0.6678   0.7938   0.8400   0.9403   1.0199   1.1594   1.2629   1.3470
     1.4520   1.5224   1.6028   1.6722   1.7212   1.7715   1.8982   1.9449
     2.0009   2.2041   2.2873   2.3253   2.4670   2.4811   2.5824   2.6812
     2.7434   2.9491   2.9831   3.0254   3.1562   3.2593   3.3378   3.3863
     3.4698   3.4936   3.5707   3.6619   3.7467   3.8262   4.1229   4.2197
     8.2886  10.0225  10.4823  10.9112  11.2906  12.0533  12.2638  12.3267
    12.4009  12.4978

     occupation numbers 
     1.0000   1.0000   1.0000   1.0000   1.0000   1.0000   1.0000   1.0000
     1.0000   1.0000   1.0000   1.0000   1.0000   1.0000   1.0000   1.0000
     1.0000   1.0000   1.0000   1.0000   1.0000   1.0000   1.0000   1.0000
     1.0000   1.0000   1.0000   1.0000   1.0000   1.0000   1.0000   1.0000
     1.0000   1.0000   1.0000   1.0000   1.0000   1.0000   1.0000   1.0000
     1.0000   1.0000   1.0000   1.0000   1.0000   1.0000   1.0000   1.0000
     1.0000   1.0000   1.0000   1.0000   1.0000   1.0000   1.0000   1.0000
     1.0000   1.0000   1.0000   1.0000   1.0000   1.0000   1.0000   1.0000
     1.0000   1.0000   1.0000   1.0000   1.0000   1.0000   1.0000   1.0000
     1.0000   1.0000   1.0000   1.0000   1.0000   1.0000   1.0000   1.0000
     1.0000   1.0000   1.0000   1.0000   1.0000   1.0000   1.0000   1.0000
     1.0000   1.0000   1.0000   1.0000   1.0000   1.0000   1.0000   1.0000
     1.0000   1.0000   1.0000   1.0000   1.0000   1.0000   1.0000   1.0000
     0.0000   0.0000   0.0000   0.0000   0.0000   0.0000   0.0000   0.0000
     0.0000   0.0000

          k = 0.0000 0.0000 0.4675 ( 38350 PWs)   bands (ev):

   -85.7848 -85.7460 -85.6381 -85.6174 -51.8754 -51.8685 -51.8561 -51.8361
   -51.7811 -51.7553 -51.6947 -51.6324 -51.5805 -51.5569 -51.4503 -51.4160
   -45.4159 -17.4665 -17.4014 -17.3812 -16.4146 -16.2580 -16.1834 -16.0449
   -14.2581 -14.1756 -14.0684 -14.0167 -13.9514 -13.8882 -13.8602 -13.8096
   -13.7771 -13.7096 -13.6697 -13.5906  -4.6535  -4.3734  -4.0460  -3.8616
    -2.5547  -2.4487  -2.1781  -2.0656  -1.8273  -1.6975  -1.6407  -1.5237
    -1.4482  -1.4216  -1.3776  -1.1861  -0.6022  -0.5056  -0.2545  -0.1619
    -0.0924  -0.0415   0.0589   0.1665   0.3137   0.3827   0.4301   0.5276
     0.6508   0.7742   0.8400   0.9348   1.0340   1.1555   1.2764   1.3240
     1.3705   1.5092   1.5768   1.6386   1.6807   1.7852   1.8923   1.9291
     2.0169   2.1643   2.2208   2.3101   2.3241   2.4623   2.6127   2.6898
     2.7439   2.9619   2.9902   3.0214   3.1088   3.2705   3.3187   3.4034
     3.4390   3.4861   3.5563   3.7001   3.7354   3.8488   4.1162   4.2260
     8.6690  10.1875  10.5743  10.9842  11.4062  11.7823  12.2175  12.2717
    12.3560  12.4406

     occupation numbers 
     1.0000   1.0000   1.0000   1.0000   1.0000   1.0000   1.0000   1.0000
     1.0000   1.0000   1.0000   1.0000   1.0000   1.0000   1.0000   1.0000
     1.0000   1.0000   1.0000   1.0000   1.0000   1.0000   1.0000   1.0000
     1.0000   1.0000   1.0000   1.0000   1.0000   1.0000   1.0000   1.0000
     1.0000   1.0000   1.0000   1.0000   1.0000   1.0000   1.0000   1.0000
     1.0000   1.0000   1.0000   1.0000   1.0000   1.0000   1.0000   1.0000
     1.0000   1.0000   1.0000   1.0000   1.0000   1.0000   1.0000   1.0000
     1.0000   1.0000   1.0000   1.0000   1.0000   1.0000   1.0000   1.0000
     1.0000   1.0000   1.0000   1.0000   1.0000   1.0000   1.0000   1.0000
     1.0000   1.0000   1.0000   1.0000   1.0000   1.0000   1.0000   1.0000
     1.0000   1.0000   1.0000   1.0000   1.0000   1.0000   1.0000   1.0000
     1.0000   1.0000   1.0000   1.0000   1.0000   1.0000   1.0000   1.0000
     1.0000   1.0000   1.0000   1.0000   1.0000   1.0000   1.0000   1.0000
     0.0000   0.0000   0.0000   0.0000   0.0000   0.0000   0.0000   0.0000
     0.0000   0.0000

          k = 0.0000 0.0000 0.7012 ( 38330 PWs)   bands (ev):

   -85.7848 -85.7460 -85.6381 -85.6174 -51.8754 -51.8686 -51.8561 -51.8361
   -51.7811 -51.7553 -51.6947 -51.6324 -51.5805 -51.5569 -51.4503 -51.4160
   -45.4159 -17.4651 -17.4018 -17.3852 -16.3678 -16.2417 -16.1537 -16.0583
   -14.2888 -14.2168 -14.0609 -14.0252 -13.9653 -13.8934 -13.8576 -13.8213
   -13.7883 -13.7171 -13.6843 -13.5961  -4.5609  -4.3314  -4.0428  -3.8556
    -2.5382  -2.3857  -2.1217  -2.0535  -1.8343  -1.6825  -1.6700  -1.5181
    -1.4269  -1.3896  -1.3493  -1.2225  -0.6080  -0.4579  -0.1985  -0.1265
    -0.1027  -0.0240   0.0881   0.2058   0.3325   0.3891   0.4511   0.4928
     0.6749   0.7417   0.8180   0.8793   1.0288   1.0882   1.1715   1.2469
     1.3574   1.4090   1.5485   1.6326   1.7107   1.8206   1.8451   1.8859
     2.0386   2.0784   2.1227   2.1901   2.3319   2.5034   2.6313   2.7035
     2.7814   2.9193   2.9827   3.0341   3.1042   3.3004   3.3324   3.3940
     3.4347   3.4762   3.5255   3.6944   3.7516   3.8723   4.1241   4.2197
     9.1901  10.3538  10.6451  11.0753  11.2897  11.7450  12.0912  12.1488
    12.2575  12.4340

     occupation numbers 
     1.0000   1.0000   1.0000   1.0000   1.0000   1.0000   1.0000   1.0000
     1.0000   1.0000   1.0000   1.0000   1.0000   1.0000   1.0000   1.0000
     1.0000   1.0000   1.0000   1.0000   1.0000   1.0000   1.0000   1.0000
     1.0000   1.0000   1.0000   1.0000   1.0000   1.0000   1.0000   1.0000
     1.0000   1.0000   1.0000   1.0000   1.0000   1.0000   1.0000   1.0000
     1.0000   1.0000   1.0000   1.0000   1.0000   1.0000   1.0000   1.0000
     1.0000   1.0000   1.0000   1.0000   1.0000   1.0000   1.0000   1.0000
     1.0000   1.0000   1.0000   1.0000   1.0000   1.0000   1.0000   1.0000
     1.0000   1.0000   1.0000   1.0000   1.0000   1.0000   1.0000   1.0000
     1.0000   1.0000   1.0000   1.0000   1.0000   1.0000   1.0000   1.0000
     1.0000   1.0000   1.0000   1.0000   1.0000   1.0000   1.0000   1.0000
     1.0000   1.0000   1.0000   1.0000   1.0000   1.0000   1.0000   1.0000
     1.0000   1.0000   1.0000   1.0000   1.0000   1.0000   1.0000   1.0000
     0.0000   0.0000   0.0000   0.0000   0.0000   0.0000   0.0000   0.0000
     0.0000   0.0000

          k = 0.0000 0.0000 0.9349 ( 38332 PWs)   bands (ev):

   -85.7848 -85.7460 -85.6381 -85.6174 -51.8754 -51.8686 -51.8561 -51.8361
   -51.7811 -51.7553 -51.6947 -51.6324 -51.5805 -51.5569 -51.4503 -51.4160
   -45.4159 -17.4641 -17.4022 -17.3876 -16.3334 -16.2297 -16.1292 -16.0766
   -14.3087 -14.2444 -14.0577 -14.0326 -13.9761 -13.9022 -13.8514 -13.8158
   -13.7996 -13.7208 -13.6948 -13.6030  -4.4956  -4.3012  -4.0362  -3.8676
    -2.5215  -2.3532  -2.0829  -2.0266  -1.8508  -1.6969  -1.6726  -1.5356
    -1.4069  -1.3448  -1.3363  -1.2553  -0.6141  -0.4195  -0.1876  -0.1456
    -0.0050   0.0233   0.2072   0.2384   0.3211   0.4058   0.4432   0.5122
     0.6615   0.6720   0.7717   0.8097   0.9373   0.9852   1.1270   1.2520
     1.3469   1.3983   1.4845   1.5900   1.7195   1.7645   1.8159   1.9341
     2.0155   2.0390   2.1045   2.1678   2.3194   2.5324   2.6301   2.7359
     2.7976   2.8619   2.9752   3.0496   3.1848   3.2933   3.3374   3.3633
     3.4409   3.4738   3.5069   3.6780   3.7703   3.8862   4.1419   4.2038
     9.7360  10.2642  10.7290  10.9612  11.1950  11.9243  12.0032  12.0750
    12.2157  12.3500

     occupation numbers 
     1.0000   1.0000   1.0000   1.0000   1.0000   1.0000   1.0000   1.0000
     1.0000   1.0000   1.0000   1.0000   1.0000   1.0000   1.0000   1.0000
     1.0000   1.0000   1.0000   1.0000   1.0000   1.0000   1.0000   1.0000
     1.0000   1.0000   1.0000   1.0000   1.0000   1.0000   1.0000   1.0000
     1.0000   1.0000   1.0000   1.0000   1.0000   1.0000   1.0000   1.0000
     1.0000   1.0000   1.0000   1.0000   1.0000   1.0000   1.0000   1.0000
     1.0000   1.0000   1.0000   1.0000   1.0000   1.0000   1.0000   1.0000
     1.0000   1.0000   1.0000   1.0000   1.0000   1.0000   1.0000   1.0000
     1.0000   1.0000   1.0000   1.0000   1.0000   1.0000   1.0000   1.0000
     1.0000   1.0000   1.0000   1.0000   1.0000   1.0000   1.0000   1.0000
     1.0000   1.0000   1.0000   1.0000   1.0000   1.0000   1.0000   1.0000
     1.0000   1.0000   1.0000   1.0000   1.0000   1.0000   1.0000   1.0000
     1.0000   1.0000   1.0000   1.0000   1.0000   1.0000   1.0000   1.0000
     0.0000   0.0000   0.0000   0.0000   0.0000   0.0000   0.0000   0.0000
     0.0000   0.0000

          k = 0.0000 0.2391 0.0000 ( 38300 PWs)   bands (ev):

   -85.7848 -85.7460 -85.6381 -85.6174 -51.8754 -51.8685 -51.8561 -51.8361
   -51.7811 -51.7553 -51.6947 -51.6324 -51.5805 -51.5569 -51.4502 -51.4160
   -45.4159 -17.4699 -17.4030 -17.3760 -16.4480 -16.2711 -16.2128 -16.0509
   -14.2389 -14.1166 -14.0858 -14.0092 -13.9761 -13.8762 -13.8364 -13.7852
   -13.7630 -13.7008 -13.6462 -13.5909  -4.7228  -4.3867  -4.0455  -3.9082
    -2.5757  -2.4771  -2.1730  -2.1024  -1.8420  -1.7272  -1.6260  -1.5564
    -1.5206  -1.3983  -1.3252  -1.1814  -0.6287  -0.5723  -0.3081  -0.1962
    -0.0553  -0.0353   0.0560   0.0935   0.2929   0.3504   0.5282   0.5477
     0.7085   0.7780   0.8154   0.8978   1.0782   1.1162   1.2640   1.3058
     1.4348   1.4962   1.6037   1.6429   1.7275   1.7977   1.8480   1.9744
     2.0258   2.1901   2.2618   2.3360   2.4590   2.5139   2.6121   2.7274
     2.7708   2.8593   2.9568   3.0923   3.1479   3.2219   3.3181   3.3906
     3.4471   3.5078   3.5556   3.6527   3.8432   3.8937   4.1706   4.2239
     8.3011  10.0330  10.5286  10.7989  11.2667  12.0684  12.1802  12.3046
    12.3647  12.5127

     occupation numbers 
     1.0000   1.0000   1.0000   1.0000   1.0000   1.0000   1.0000   1.0000
     1.0000   1.0000   1.0000   1.0000   1.0000   1.0000   1.0000   1.0000
     1.0000   1.0000   1.0000   1.0000   1.0000   1.0000   1.0000   1.0000
     1.0000   1.0000   1.0000   1.0000   1.0000   1.0000   1.0000   1.0000
     1.0000   1.0000   1.0000   1.0000   1.0000   1.0000   1.0000   1.0000
     1.0000   1.0000   1.0000   1.0000   1.0000   1.0000   1.0000   1.0000
     1.0000   1.0000   1.0000   1.0000   1.0000   1.0000   1.0000   1.0000
     1.0000   1.0000   1.0000   1.0000   1.0000   1.0000   1.0000   1.0000
     1.0000   1.0000   1.0000   1.0000   1.0000   1.0000   1.0000   1.0000
     1.0000   1.0000   1.0000   1.0000   1.0000   1.0000   1.0000   1.0000
     1.0000   1.0000   1.0000   1.0000   1.0000   1.0000   1.0000   1.0000
     1.0000   1.0000   1.0000   1.0000   1.0000   1.0000   1.0000   1.0000
     1.0000   1.0000   1.0000   1.0000   1.0000   1.0000   1.0000   1.0000
     0.0000   0.0000   0.0000   0.0000   0.0000   0.0000   0.0000   0.0000
     0.0000   0.0000

          k = 0.0000 0.2391 0.2337 ( 38294 PWs)   bands (ev):

   -85.7848 -85.7460 -85.6381 -85.6174 -51.8754 -51.8685 -51.8561 -51.8361
   -51.7811 -51.7553 -51.6947 -51.6324 -51.5805 -51.5569 -51.4502 -51.4160
   -45.4159 -17.4697 -17.4031 -17.3774 -16.4355 -16.2601 -16.2083 -16.0511
   -14.2464 -14.1421 -14.0740 -14.0100 -13.9763 -13.8908 -13.8319 -13.7934
   -13.7665 -13.7016 -13.6512 -13.5898  -4.7006  -4.3804  -4.0434  -3.8768
    -2.5603  -2.4655  -2.2026  -2.0629  -1.8322  -1.7144  -1.6211  -1.5608
    -1.5181  -1.4020  -1.3585  -1.1488  -0.6109  -0.5660  -0.2880  -0.1828
    -0.0705  -0.0236   0.0588   0.1273   0.2582   0.3344   0.4792   0.5365
     0.6310   0.7799   0.8045   0.8906   1.0622   1.1728   1.2498   1.3041
     1.4432   1.5518   1.5814   1.6415   1.7127   1.7848   1.9059   1.9696
     2.0328   2.1873   2.2396   2.3259   2.4262   2.4827   2.6048   2.6779
     2.7484   2.8503   2.9545   3.1043   3.1480   3.2358   3.2917   3.3890
     3.4400   3.5033   3.5881   3.6616   3.8541   3.8915   4.1376   4.2485
     8.4308  10.0998  10.5706  10.8238  11.3370  12.0260  12.1503  12.3088
    12.3667  12.4704

     occupation numbers 
     1.0000   1.0000   1.0000   1.0000   1.0000   1.0000   1.0000   1.0000
     1.0000   1.0000   1.0000   1.0000   1.0000   1.0000   1.0000   1.0000
     1.0000   1.0000   1.0000   1.0000   1.0000   1.0000   1.0000   1.0000
     1.0000   1.0000   1.0000   1.0000   1.0000   1.0000   1.0000   1.0000
     1.0000   1.0000   1.0000   1.0000   1.0000   1.0000   1.0000   1.0000
     1.0000   1.0000   1.0000   1.0000   1.0000   1.0000   1.0000   1.0000
     1.0000   1.0000   1.0000   1.0000   1.0000   1.0000   1.0000   1.0000
     1.0000   1.0000   1.0000   1.0000   1.0000   1.0000   1.0000   1.0000
     1.0000   1.0000   1.0000   1.0000   1.0000   1.0000   1.0000   1.0000
     1.0000   1.0000   1.0000   1.0000   1.0000   1.0000   1.0000   1.0000
     1.0000   1.0000   1.0000   1.0000   1.0000   1.0000   1.0000   1.0000
     1.0000   1.0000   1.0000   1.0000   1.0000   1.0000   1.0000   1.0000
     1.0000   1.0000   1.0000   1.0000   1.0000   1.0000   1.0000   1.0000
     0.0000   0.0000   0.0000   0.0000   0.0000   0.0000   0.0000   0.0000
     0.0000   0.0000

          k = 0.0000 0.2391 0.4675 ( 38323 PWs)   bands (ev):

   -85.7848 -85.7460 -85.6381 -85.6174 -51.8754 -51.8685 -51.8561 -51.8361
   -51.7811 -51.7553 -51.6947 -51.6324 -51.5805 -51.5569 -51.4503 -51.4160
   -45.4159 -17.4684 -17.4033 -17.3810 -16.4009 -16.2421 -16.1881 -16.0544
   -14.2693 -14.1755 -14.0728 -14.0233 -13.9694 -13.9027 -13.8422 -13.8077
   -13.7738 -13.7059 -13.6641 -13.5904  -4.6301  -4.3523  -4.0397  -3.8336
    -2.5377  -2.4352  -2.1779  -2.0415  -1.8288  -1.7043  -1.6173  -1.5442
    -1.4659  -1.4120  -1.3825  -1.1487  -0.6201  -0.5223  -0.2461  -0.1610
    -0.0999  -0.0135   0.0641   0.1350   0.2688   0.3310   0.4203   0.5509
     0.5762   0.7541   0.7888   0.9036   1.0238   1.1659   1.2443   1.3042
     1.4162   1.5290   1.5863   1.6240   1.7317   1.7729   1.9132   1.9677
     2.0157   2.1316   2.2088   2.2780   2.3554   2.4093   2.6239   2.6375
     2.7420   2.8396   2.9688   3.0712   3.1552   3.2382   3.2880   3.4077
     3.4246   3.4967   3.5995   3.6972   3.8593   3.8835   4.1202   4.2641
     8.7896  10.2669  10.6554  10.9088  11.4639  11.8418  12.1184  12.2159
    12.3346  12.4161

     occupation numbers 
     1.0000   1.0000   1.0000   1.0000   1.0000   1.0000   1.0000   1.0000
     1.0000   1.0000   1.0000   1.0000   1.0000   1.0000   1.0000   1.0000
     1.0000   1.0000   1.0000   1.0000   1.0000   1.0000   1.0000   1.0000
     1.0000   1.0000   1.0000   1.0000   1.0000   1.0000   1.0000   1.0000
     1.0000   1.0000   1.0000   1.0000   1.0000   1.0000   1.0000   1.0000
     1.0000   1.0000   1.0000   1.0000   1.0000   1.0000   1.0000   1.0000
     1.0000   1.0000   1.0000   1.0000   1.0000   1.0000   1.0000   1.0000
     1.0000   1.0000   1.0000   1.0000   1.0000   1.0000   1.0000   1.0000
     1.0000   1.0000   1.0000   1.0000   1.0000   1.0000   1.0000   1.0000
     1.0000   1.0000   1.0000   1.0000   1.0000   1.0000   1.0000   1.0000
     1.0000   1.0000   1.0000   1.0000   1.0000   1.0000   1.0000   1.0000
     1.0000   1.0000   1.0000   1.0000   1.0000   1.0000   1.0000   1.0000
     1.0000   1.0000   1.0000   1.0000   1.0000   1.0000   1.0000   1.0000
     0.0000   0.0000   0.0000   0.0000   0.0000   0.0000   0.0000   0.0000
     0.0000   0.0000

          k = 0.0000 0.2391 0.7012 ( 38349 PWs)   bands (ev):

   -85.7848 -85.7460 -85.6381 -85.6174 -51.8754 -51.8685 -51.8561 -51.8361
   -51.7811 -51.7553 -51.6947 -51.6324 -51.5805 -51.5569 -51.4503 -51.4160
   -45.4159 -17.4667 -17.4035 -17.3850 -16.3568 -16.2244 -16.1600 -16.0648
   -14.2977 -14.2122 -14.0750 -14.0376 -13.9723 -13.9066 -13.8492 -13.8166
   -13.7839 -13.7134 -13.6772 -13.5961  -4.5385  -4.3132  -4.0337  -3.8149
    -2.5282  -2.3845  -2.1149  -2.0303  -1.8341  -1.7126  -1.6298  -1.5309
    -1.4230  -1.3828  -1.3623  -1.1972  -0.6318  -0.4850  -0.2004  -0.1190
    -0.0646  -0.0059   0.0608   0.1365   0.3220   0.3501   0.4128   0.5254
     0.6269   0.7181   0.7566   0.8674   0.9996   1.1122   1.1375   1.2975
     1.3380   1.4404   1.5630   1.6288   1.7240   1.8128   1.8602   1.8981
     2.0551   2.0678   2.1306   2.2036   2.3053   2.4459   2.6267   2.6667
     2.7379   2.8465   2.9718   3.0505   3.1463   3.2389   3.2948   3.4183
     3.4432   3.4867   3.5846   3.7410   3.8222   3.8995   4.1343   4.2611
     9.2854  10.4551  10.6954  11.0323  11.3357  11.8252  12.0708  12.1314
    12.1892  12.4502

     occupation numbers 
     1.0000   1.0000   1.0000   1.0000   1.0000   1.0000   1.0000   1.0000
     1.0000   1.0000   1.0000   1.0000   1.0000   1.0000   1.0000   1.0000
     1.0000   1.0000   1.0000   1.0000   1.0000   1.0000   1.0000   1.0000
     1.0000   1.0000   1.0000   1.0000   1.0000   1.0000   1.0000   1.0000
     1.0000   1.0000   1.0000   1.0000   1.0000   1.0000   1.0000   1.0000
     1.0000   1.0000   1.0000   1.0000   1.0000   1.0000   1.0000   1.0000
     1.0000   1.0000   1.0000   1.0000   1.0000   1.0000   1.0000   1.0000
     1.0000   1.0000   1.0000   1.0000   1.0000   1.0000   1.0000   1.0000
     1.0000   1.0000   1.0000   1.0000   1.0000   1.0000   1.0000   1.0000
     1.0000   1.0000   1.0000   1.0000   1.0000   1.0000   1.0000   1.0000
     1.0000   1.0000   1.0000   1.0000   1.0000   1.0000   1.0000   1.0000
     1.0000   1.0000   1.0000   1.0000   1.0000   1.0000   1.0000   1.0000
     1.0000   1.0000   1.0000   1.0000   1.0000   1.0000   1.0000   1.0000
     0.0000   0.0000   0.0000   0.0000   0.0000   0.0000   0.0000   0.0000
     0.0000   0.0000

          k = 0.0000 0.2391 0.9349 ( 38302 PWs)   bands (ev):

   -85.7848 -85.7460 -85.6381 -85.6174 -51.8754 -51.8685 -51.8561 -51.8361
   -51.7811 -51.7553 -51.6947 -51.6324 -51.5805 -51.5569 -51.4503 -51.4160
   -45.4159 -17.4654 -17.4036 -17.3876 -16.3229 -16.2162 -16.1347 -16.0798
   -14.3164 -14.2393 -14.0724 -14.0444 -13.9799 -13.9138 -13.8508 -13.8105
   -13.7943 -13.7181 -13.6874 -13.6026  -4.4657  -4.2782  -4.0316  -3.8348
    -2.5104  -2.3528  -2.0711  -2.0124  -1.8472  -1.7200  -1.6516  -1.5410
    -1.3971  -1.3449  -1.3231  -1.2472  -0.6464  -0.4561  -0.1924  -0.1088
    -0.0321   0.0127   0.1043   0.2271   0.3452   0.3957   0.4450   0.5088
     0.6576   0.6832   0.7169   0.8068   0.9229   0.9941   1.1177   1.2706
     1.3394   1.4026   1.4779   1.5672   1.7276   1.7779   1.8274   1.9131
     2.0282   2.0614   2.1057   2.1564   2.2898   2.5081   2.6400   2.6951
     2.7247   2.8373   2.9700   3.0588   3.1444   3.2628   3.3046   3.4073
     3.4408   3.4819   3.5747   3.7611   3.7809   3.9283   4.1571   4.2474
     9.8002  10.4023  10.7245  11.0703  11.1534  11.9021  11.9893  12.1192
    12.2035  12.3842

     occupation numbers 
     1.0000   1.0000   1.0000   1.0000   1.0000   1.0000   1.0000   1.0000
     1.0000   1.0000   1.0000   1.0000   1.0000   1.0000   1.0000   1.0000
     1.0000   1.0000   1.0000   1.0000   1.0000   1.0000   1.0000   1.0000
     1.0000   1.0000   1.0000   1.0000   1.0000   1.0000   1.0000   1.0000
     1.0000   1.0000   1.0000   1.0000   1.0000   1.0000   1.0000   1.0000
[...]
     atom   12 type  3   force =     0.01236433    0.00706100    0.02419334
     atom   13 type  3   force =     0.00052785   -0.00406332    0.03016569
     atom   14 type  3   force =     0.03440661   -0.00472276   -0.01102684
     atom   15 type  3   force =    -0.03120316    0.00154346    0.00041723
     atom   16 type  3   force =    -0.03272343    0.00441140    0.01315353
     atom   17 type  3   force =     0.03032875   -0.00300409    0.00169360
     atom   18 type  3   force =    -0.00512184   -0.02711929    0.01968357
     atom   19 type  3   force =     0.01264452    0.01664510    0.01863178
     atom   20 type  3   force =     0.00150395   -0.03731908   -0.01873573
     atom   21 type  3   force =     0.00114981    0.02088070   -0.00605840
     atom   22 type  3   force =     0.00422647    0.02561944   -0.01277478
     atom   23 type  3   force =    -0.01296651   -0.01596182   -0.01718370
     atom   24 type  3   force =    -0.00229453    0.03363499    0.02219204
     atom   25 type  3   force =    -0.00079042   -0.02273503    0.00853907
     The non-local contrib.  to forces
     atom    1 type  2   force =     0.05565699    0.00122411    0.02474915
     atom    2 type  1   force =     0.07065874   -0.10098435   -0.16216970
     atom    3 type  1   force =    -0.06377669   -0.16333047    0.08432203
     atom    4 type  1   force =    -0.04455358    0.10889742    0.17900505
     atom    5 type  1   force =     0.01341968    0.13417393   -0.14594586
     atom    6 type  4   force =    -0.00734124    0.04616452    0.03430785
     atom    7 type  4   force =    -0.02856543    0.01105560   -0.06210293
     atom    8 type  4   force =     0.00564486   -0.06709210   -0.03957170
     atom    9 type  4   force =     0.03404967   -0.02062892    0.06398498
     atom   10 type  3   force =    -0.55224115   -0.27053112   -1.05876483
     atom   11 type  3   force =    -0.03876643    0.22666032   -1.47789490
     atom   12 type  3   force =     0.59517225    0.20878841    1.04029924
     atom   13 type  3   force =     0.05647492   -0.23035426    1.47836056
     atom   14 type  3   force =     1.41651739   -0.22892684   -0.61433486
     atom   15 type  3   force =    -1.31654387    0.51633417   -0.12672076
     atom   16 type  3   force =    -1.39300387    0.23050332    0.66797467
     atom   17 type  3   force =     1.28914109   -0.41047954    0.04817958
     atom   18 type  3   force =    -0.10384166   -1.33596234    0.85871482
     atom   19 type  3   force =     0.62769836    0.69994285    0.92729449
     atom   20 type  3   force =    -0.02056491   -1.65865370   -0.96610316
     atom   21 type  3   force =    -0.11503272    0.98340317   -0.60144774
     atom   22 type  3   force =     0.12232599    1.36673305   -0.78063718
     atom   23 type  3   force =    -0.63830622   -0.67458369   -0.95138578
     atom   24 type  3   force =    -0.02289640    1.56377161    0.98495937
     atom   25 type  3   force =     0.07888068   -1.05257646    0.59659491
     The ionic contribution  to forces
     atom    1 type  2   force =     1.34777949   -3.00326613   -1.85657068
     atom    2 type  1   force =     8.25519764    5.23223441   -2.10910562
     atom    3 type  1   force =     5.33197336   -9.02934028   -1.92331774
     atom    4 type  1   force =   -10.82547819   -4.26435488    1.73519561
     atom    5 type  1   force =    -4.12637597   10.14007159    3.09499268
     atom    6 type  4   force =    -1.44603966    2.46295435   -1.38746136
     atom    7 type  4   force =     3.36026413   -0.91866649    1.20294544
     atom    8 type  4   force =     1.53683647   -2.27935484    1.81214020
     atom    9 type  4   force =    -3.35247854    0.79921008   -1.09227997
     atom   10 type  3   force =    -1.00356904    7.30432736    0.25069821
     atom   11 type  3   force =     7.28923028   -3.72726536    2.15575301
     atom   12 type  3   force =    -0.91821354   -5.63448349    0.87975157
     atom   13 type  3   force =    -7.24473343    3.84200879   -2.22058285
     atom   14 type  3   force =     0.31401626    1.29294752    7.08656377
     atom   15 type  3   force =     0.36650130   -5.18259764    5.02814176
     atom   16 type  3   force =    -0.61063786   -1.37781411   -7.52966265
     atom   17 type  3   force =     0.36078160    3.63632632   -2.64304731
     atom   18 type  3   force =    -4.56866632    7.23542264   -0.12993962
     atom   19 type  3   force =     2.54313702   -1.58662703   -3.47908872
     atom   20 type  3   force =     4.43384955    6.51101097    8.23355120
     atom   21 type  3   force =    -8.69847328   -0.20206206   -0.00171780
     atom   22 type  3   force =     4.62655230   -8.28825768   -2.49118045
     atom   23 type  3   force =    -2.74656828    0.50773186    3.75970166
     atom   24 type  3   force =    -3.19513748   -4.51901772   -8.65466753
     atom   25 type  3   force =     8.97025219    1.04886181    0.27918721
     The local contribution  to forces
     atom    1 type  2   force =    -1.40781881    3.01972300    1.79436381
     atom    2 type  1   force =    -8.32674359   -5.13037275    2.27718206
     atom    3 type  1   force =    -5.26783547    9.20274605    1.83774808
     atom    4 type  1   force =    10.86850932    4.15451858   -1.91884234
     atom    5 type  1   force =     4.11528494  -10.28344614   -2.94146808
     atom    6 type  4   force =     1.45554275   -2.50794939    1.35826669
     atom    7 type  4   force =    -3.33287268    0.90737343   -1.14074982
     atom    8 type  4   force =    -1.54410765    2.34106442   -1.77380078
     atom    9 type  4   force =     3.31945793   -0.77875899    1.03107558
     atom   10 type  3   force =     1.54168150   -7.05030892    0.77753853
     atom   11 type  3   force =    -7.25050182    3.50600586   -0.72035843
     atom   12 type  3   force =     0.34051270    5.43465976   -1.88642026
     atom   13 type  3   force =     7.19007502   -3.61813877    0.78583554
     atom   14 type  3   force =    -1.68349652   -1.07092537   -6.48949786
     atom   15 type  3   force =     0.90723941    4.67276702   -4.90261030
     atom   16 type  3   force =     1.95851257    1.15389833    6.88157828
     atom   17 type  3   force =    -1.60828434   -3.23282852    2.59754898
     atom   18 type  3   force =     4.66700990   -5.93919315   -0.70138885
     atom   19 type  3   force =    -3.15248025    0.90938943    2.57912028
     atom   20 type  3   force =    -4.41216413   -4.90480124   -7.29552859
     atom   21 type  3   force =     8.81374029   -0.75156631    0.59144226
     atom   22 type  3   force =    -4.74408667    6.96007060    3.25213530
     atom   23 type  3   force =     3.36608034    0.14507192   -2.83443415
     atom   24 type  3   force =     3.21566881    3.00307797    7.70144358
     atom   25 type  3   force =    -9.04937102   -0.02853034   -0.86161520
     The core correction contribution to forces
     atom    1 type  2   force =     0.00000000    0.00000000    0.00000000
     atom    2 type  1   force =    -0.00230968    0.00054287    0.00064154
     atom    3 type  1   force =     0.00122593   -0.00057304    0.00082595
     atom    4 type  1   force =     0.00214061   -0.00084745   -0.00078759
     atom    5 type  1   force =    -0.00069689    0.00079111   -0.00049644
     atom    6 type  4   force =     0.00131542   -0.00263788   -0.00179631
     atom    7 type  4   force =     0.00185153   -0.00048881    0.00379735
     atom    8 type  4   force =    -0.00130166    0.00410585    0.00218427
     atom    9 type  4   force =    -0.00226860    0.00137825   -0.00403632
     atom   10 type  3   force =     0.00475615    0.00247618    0.00952801
     atom   11 type  3   force =     0.00111457   -0.00237850    0.01338216
     atom   12 type  3   force =    -0.00511087   -0.00190483   -0.00943803
     atom   13 type  3   force =    -0.00128825    0.00241999   -0.01344738
     atom   14 type  3   force =    -0.01262925    0.00218120    0.00624109
     atom   15 type  3   force =     0.01159463   -0.00496164    0.00160775
     atom   16 type  3   force =     0.01240925   -0.00217719   -0.00673581
     atom   17 type  3   force =    -0.01131274    0.00397706   -0.00098755
     atom   18 type  3   force =     0.00037758    0.01261240   -0.00770381
     atom   19 type  3   force =    -0.00570728   -0.00606482   -0.00869252
     atom   20 type  3   force =     0.00037990    0.01512387    0.00934434
     atom   21 type  3   force =     0.00091655   -0.00889668    0.00566475
     atom   22 type  3   force =    -0.00056963   -0.01292729    0.00690800
     atom   23 type  3   force =     0.00582737    0.00581866    0.00893401
     atom   24 type  3   force =     0.00006817   -0.01419633   -0.00954556
     atom   25 type  3   force =    -0.00054828    0.00951178   -0.00562532
     The Hubbard contrib.    to forces
     atom    1 type  2   force =     0.00000000    0.00000000    0.00000000
     atom    2 type  1   force =     0.00000000    0.00000000    0.00000000
     atom    3 type  1   force =     0.00000000    0.00000000    0.00000000
     atom    4 type  1   force =     0.00000000    0.00000000    0.00000000
     atom    5 type  1   force =     0.00000000    0.00000000    0.00000000
     atom    6 type  4   force =     0.00000000    0.00000000    0.00000000
     atom    7 type  4   force =     0.00000000    0.00000000    0.00000000
     atom    8 type  4   force =     0.00000000    0.00000000    0.00000000
     atom    9 type  4   force =     0.00000000    0.00000000    0.00000000
     atom   10 type  3   force =     0.00000000    0.00000000    0.00000000
     atom   11 type  3   force =     0.00000000    0.00000000    0.00000000
     atom   12 type  3   force =     0.00000000    0.00000000    0.00000000
     atom   13 type  3   force =     0.00000000    0.00000000    0.00000000
     atom   14 type  3   force =     0.00000000    0.00000000    0.00000000
     atom   15 type  3   force =     0.00000000    0.00000000    0.00000000
     atom   16 type  3   force =     0.00000000    0.00000000    0.00000000
     atom   17 type  3   force =     0.00000000    0.00000000    0.00000000
     atom   18 type  3   force =     0.00000000    0.00000000    0.00000000
     atom   19 type  3   force =     0.00000000    0.00000000    0.00000000
     atom   20 type  3   force =     0.00000000    0.00000000    0.00000000
     atom   21 type  3   force =     0.00000000    0.00000000    0.00000000
     atom   22 type  3   force =     0.00000000    0.00000000    0.00000000
     atom   23 type  3   force =     0.00000000    0.00000000    0.00000000
     atom   24 type  3   force =     0.00000000    0.00000000    0.00000000
     atom   25 type  3   force =     0.00000000    0.00000000    0.00000000
     The SCF correction term to forces
     atom    1 type  2   force =     0.00000456    0.00000089    0.00000015
     atom    2 type  1   force =    -0.00000602   -0.00000134   -0.00000186
     atom    3 type  1   force =    -0.00000274   -0.00000013    0.00000070
     atom    4 type  1   force =     0.00000176   -0.00000050    0.00000057
     atom    5 type  1   force =     0.00000450    0.00000074    0.00000008
     atom    6 type  4   force =     0.00000108   -0.00000091    0.00000059
     atom    7 type  4   force =    -0.00000316    0.00000052   -0.00000058
     atom    8 type  4   force =     0.00000307    0.00000009    0.00000001
     atom    9 type  4   force =    -0.00000060   -0.00000025   -0.00000001
     atom   10 type  3   force =    -0.00000064   -0.00000332   -0.00000078
     atom   11 type  3   force =    -0.00000490    0.00000095    0.00000279
     atom   12 type  3   force =     0.00000366    0.00000024    0.00000071
     atom   13 type  3   force =    -0.00000055    0.00000001   -0.00000029
     atom   14 type  3   force =    -0.00000141   -0.00000017    0.00000091
     atom   15 type  3   force =     0.00000523    0.00000063   -0.00000133
     atom   16 type  3   force =    -0.00000366    0.00000013   -0.00000107
     atom   17 type  3   force =     0.00000300   -0.00000033   -0.00000021
     atom   18 type  3   force =    -0.00000147    0.00000024    0.00000093
     atom   19 type  3   force =    -0.00000346    0.00000376   -0.00000186
     atom   20 type  3   force =     0.00000341    0.00000010    0.00000039
     atom   21 type  3   force =    -0.00000117    0.00000165    0.00000002
     atom   22 type  3   force =     0.00000434   -0.00000015   -0.00000055
     atom   23 type  3   force =     0.00000014   -0.00000147    0.00000046
     atom   24 type  3   force =     0.00000224   -0.00000145    0.00000208
     atom   25 type  3   force =    -0.00000414   -0.00000275   -0.00000263

     Total force =     0.133502     Total SCF correction =     0.000019


     Computing stress (Cartesian axis) and pressure


     negative rho (up, down):  0.000E+00 9.295E-04
          total   stress  (Ry/bohr**3)                   (kbar)     P=      -59.13
  -0.00071225   0.00011534  -0.00003056         -104.78       16.97       -4.50
   0.00011534  -0.00021502  -0.00004068           16.97      -31.63       -5.98
  -0.00003056  -0.00004068  -0.00027862           -4.50       -5.98      -40.99

     kinetic stress (kbar)  25039.43     89.52    -45.88
                               89.52  25175.97     -2.58
                              -45.88     -2.58  25201.72

     local   stress (kbar)  -8700.94   3761.31  -7767.81
                             3761.31 -13740.62   -572.08
                            -7767.81   -572.08  -5646.26

     nonloc. stress (kbar)  -6379.64      5.56     -5.68
                                5.56  -6356.78     -9.10
                               -5.68     -9.10  -6362.27

     hartree stress (kbar)  14076.28  -1412.14   3297.06
                            -1412.14  16704.96    295.27
                             3297.06    295.27  13223.86

     exc-cor stress (kbar)  -2655.32     -3.38      3.09
                               -3.38  -2658.80     -0.68
                                3.09     -0.68  -2659.15

     corecor stress (kbar)  -2962.86      0.29     -0.31
                                0.29  -2963.43      1.16
                               -0.31      1.16  -2963.44

     ewald   stress (kbar) -18521.72  -2424.19   4515.04
                            -2424.19 -16192.92    282.03
                             4515.04    282.03 -20835.44

     hubbard stress (kbar)      0.00      0.00      0.00
                                0.00      0.00      0.00
                                0.00      0.00      0.00

     DFT-D   stress (kbar)      0.00      0.00      0.00
                                0.00      0.00      0.00
                                0.00      0.00      0.00

     XDM     stress (kbar)      0.00      0.00      0.00
                                0.00      0.00      0.00
                                0.00      0.00      0.00

     dft-nl  stress (kbar)      0.00      0.00      0.00
                                0.00      0.00      0.00
                                0.00      0.00      0.00

     TS-vdW  stress (kbar)      0.00      0.00      0.00
                                0.00      0.00      0.00
                                0.00      0.00      0.00



     init_run     :     83.97s CPU     88.89s WALL (       1 calls)
     electrons    :   7328.99s CPU   7632.59s WALL (       1 calls)
     forces       :     40.77s CPU     41.63s WALL (       1 calls)
     stress       :    498.80s CPU    501.33s WALL (       1 calls)

     Called by init_run:
     wfcinit      :     76.82s CPU     81.27s WALL (       1 calls)
     wfcinit:atom :      1.85s CPU      1.88s WALL (     316 calls)
     wfcinit:wfcr :     68.21s CPU     72.55s WALL (     316 calls)
     potinit      :      2.51s CPU      2.64s WALL (       1 calls)
     hinit0       :      2.56s CPU      2.71s WALL (       1 calls)

     Called by electrons:
     c_bands      :   6262.30s CPU   6502.41s WALL (      37 calls)
     sum_band     :    969.33s CPU   1027.59s WALL (      37 calls)
     v_of_rho     :     20.67s CPU     21.39s WALL (      38 calls)
     v_h          :      0.95s CPU      0.99s WALL (      38 calls)
     v_xc         :     20.77s CPU     21.47s WALL (      40 calls)
     newd         :     53.86s CPU     58.15s WALL (      38 calls)
     PAW_pot      :     18.61s CPU     18.79s WALL (      38 calls)
     mix_rho      :      4.37s CPU      4.57s WALL (      37 calls)

     Called by c_bands:
     init_us_2    :    154.27s CPU    156.99s WALL (   24332 calls)
     cegterg      :   5946.91s CPU   6183.77s WALL (   11692 calls)

     Called by sum_band:
     sum_band:wei :      0.32s CPU      0.33s WALL (      37 calls)
     sum_band:loo :    866.68s CPU    914.28s WALL (      37 calls)
     sum_band:buf :     38.58s CPU     39.09s WALL (   11692 calls)
     sum_band:ini :     76.16s CPU     77.42s WALL (   11692 calls)
     sum_band:cal :    219.18s CPU    223.87s WALL (   11692 calls)
     sum_band:bec :      1.68s CPU      1.74s WALL (   11692 calls)
     addusdens    :    100.28s CPU    110.82s WALL (      37 calls)
     addusd:skk   :      0.83s CPU      0.85s WALL (     111 calls)
     addusd:dgemm :     22.94s CPU     32.57s WALL (     222 calls)
     addusd:qvan2 :     75.52s CPU     76.19s WALL (     222 calls)

     Called by *egterg:
     cdiaghg      :    314.77s CPU    320.51s WALL (   42465 calls)
     cegterg:over :    465.33s CPU    472.94s WALL (   30773 calls)
     cegterg:upda :    361.91s CPU    365.26s WALL (   30773 calls)
     cegterg:last :    627.71s CPU    633.28s WALL (   19371 calls)
     h_psi        :   3191.28s CPU   3399.77s WALL (   42781 calls)
     s_psi        :    646.14s CPU    651.86s WALL (   42781 calls)
     g_psi        :     33.57s CPU     33.97s WALL (   30773 calls)

     Called by h_psi:
     h_psi:calbec :    539.55s CPU    551.12s WALL (   42781 calls)
     vloc_psi     :   1914.40s CPU   2103.50s WALL (   42781 calls)
     add_vuspsi   :    658.19s CPU    664.99s WALL (   42781 calls)

     General routines
     calbec       :    787.47s CPU    804.42s WALL (   56053 calls)
     fft          :     15.79s CPU     16.94s WALL (     988 calls)
     ffts         :      0.20s CPU      0.21s WALL (     150 calls)
     fftw         :   2038.75s CPU   2236.56s WALL ( 7157114 calls)
     interpolate  :      1.59s CPU      1.68s WALL (      76 calls)

     Parallel routines
     fft_scatt_xy :    429.64s CPU    470.50s WALL ( 7158252 calls)
     fft_scatt_yz :    573.21s CPU    638.76s WALL ( 7158252 calls)

     PAW routines
     PAW_pot      :     18.61s CPU     18.79s WALL (      38 calls)

     PWSCF        :      2h12m CPU      2h18m WALL


   This run was terminated on:   0:14:56  20Feb2023            

=------------------------------------------------------------------------------=
   JOB DONE.
=------------------------------------------------------------------------------=
Note: The following floating-point exceptions are signalling: IEEE_UNDERFLOW_FLAG IEEE_DENORMAL
Note: The following floating-point exceptions are signalling: IEEE_INVALID_FLAG IEEE_DENORMAL
Note: The following floating-point exceptions are signalling: IEEE_DENORMAL
Note: The following floating-point exceptions are signalling: IEEE_DENORMAL
Note: The following floating-point exceptions are signalling: IEEE_DENORMAL
Note: The following floating-point exceptions are signalling: IEEE_INVALID_FLAG IEEE_DENORMAL
Note: The following floating-point exceptions are signalling: IEEE_INVALID_FLAG IEEE_DENORMAL
Note: The following floating-point exceptions are signalling: IEEE_DENORMAL
Note: The following floating-point exceptions are signalling: IEEE_DENORMAL
Note: The following floating-point exceptions are signalling: IEEE_DENORMAL
Note: The following floating-point exceptions are signalling: IEEE_DENORMAL
Note: The following floating-point exceptions are signalling: IEEE_DENORMAL
