
     Program PWSCF v.6.7MaX starts on 20Jan2023 at  2: 7: 6 

     This program is part of the open-source Quantum ESPRESSO suite
     for quantum simulation of materials; please cite
         "P. Giannozzi et al., J. Phys.:Condens. Matter 21 395502 (2009);
         "P. Giannozzi et al., J. Phys.:Condens. Matter 29 465901 (2017);
          URL http://www.quantum-espresso.org", 
     in publications or presentations arising from this work. More details at
     http://www.quantum-espresso.org/quote

     Parallel version (MPI), running on    32 processors

     MPI processes distributed on     2 nodes
     R & G space division:  proc/nbgrp/npool/nimage =      32
     Reading input from scale_2dab-03.in

     Current dimensions of program PWSCF are:
     Max number of different atomic species (ntypx) = 10
     Max number of k-points (npk) =  40000
     Max angular momentum in pseudopotentials (lmaxx) =  3
     Message from routine read_pp_mesh:
     mesh size missing, using the one in header
     file Fe.pbe-spn-kjpaw_psl.0.2.1.UPF: wavefunction(s)  3D renormalized
     file O.pbe-n-kjpaw_psl.0.1.UPF: wavefunction(s)  2P renormalized

     Subspace diagonalization in iterative solution of the eigenvalue problem:
     a serial algorithm will be used


     Parallelization info
     --------------------
     sticks:   dense  smooth     PW     G-vecs:    dense   smooth      PW
     Min         641     237     64                41821     9427    1324
     Max         642     238     65                41824     9430    1326
     Sum       20521    7599   2049              1338317   301689   42399



     bravais-lattice index     =            0
     lattice parameter (alat)  =      19.9928  a.u.
     unit-cell volume          =    2232.9698 (a.u.)^3
     number of atoms/cell      =           25
     number of atomic types    =            4
     number of electrons       =       189.00
     number of Kohn-Sham states=          114
     kinetic-energy cutoff     =     100.0000  Ry
     charge density cutoff     =    1080.0000  Ry
     scf convergence threshold =      2.0E-10
     mixing beta               =       0.4000
     number of iterations used =            8  plain     mixing
     Exchange-correlation= PBE
                           (   1   4   3   4   0   0   0)

     celldm(1)=  19.992808  celldm(2)=   0.000000  celldm(3)=   0.000000
     celldm(4)=   0.000000  celldm(5)=   0.000000  celldm(6)=   0.000000

     crystal axes: (cart. coord. in units of alat)
               a(1) = (   1.000000   0.000000   0.000000 )  
               a(2) = (   0.000000   0.597590   0.000000 )  
               a(3) = (   0.000000   0.000000   0.467582 )  

     reciprocal axes: (cart. coord. in units 2 pi/alat)
               b(1) = (  1.000000  0.000000  0.000000 )  
               b(2) = (  0.000000  1.673388  0.000000 )  
               b(3) = (  0.000000  0.000000  2.138660 )  


     PseudoPot. # 1 for Fe read from file:
     /opt/QEpot/SSSP_precision_pseudos/Fe.pbe-spn-kjpaw_psl.0.2.1.UPF
     MD5 check sum: e86618425769142926afa95317d90200
     Pseudo is Projector augmented-wave + core cor, Zval = 16.0
     Generated using "atomic" code by A. Dal Corso  v.5.0.99 svn rev. 10869
     Shape of augmentation charge: PSQ
     Using radial grid of 1191 points,  6 beta functions with: 
                l(1) =   0
                l(2) =   0
                l(3) =   1
                l(4) =   1
                l(5) =   2
                l(6) =   2
     Q(r) pseudized with 0 coefficients 


     PseudoPot. # 2 for Na read from file:
     /opt/QEpot/SSSP_precision_pseudos/Na_ONCV_PBE-1.0.oncvpsp.upf
     MD5 check sum: 24a298df0a6742ae313db96548fdb2a4
     Pseudo is Norm-conserving, Zval =  9.0
     Generated using ONCVPSP code by D. R. Hamann
     Using radial grid of 1992 points,  4 beta functions with: 
                l(1) =   0
                l(2) =   0
                l(3) =   1
                l(4) =   1

     PseudoPot. # 3 for O  read from file:
     /opt/QEpot/SSSP_precision_pseudos/O.pbe-n-kjpaw_psl.0.1.UPF
     MD5 check sum: 0234752ac141de4415c5fc33072bef88
     Pseudo is Projector augmented-wave + core cor, Zval =  6.0
     Generated using "atomic" code by A. Dal Corso  v.5.0.99 svn rev. 10869
     Shape of augmentation charge: BESSEL
     Using radial grid of 1095 points,  4 beta functions with: 
                l(1) =   0
                l(2) =   0
                l(3) =   1
                l(4) =   1
     Q(r) pseudized with 0 coefficients 


     PseudoPot. # 4 for P  read from file:
     /opt/QEpot/SSSP_precision_pseudos/P.pbe-n-rrkjus_psl.1.0.0.UPF
     MD5 check sum: 8b930f418f0a4573dca56cd030ffe088
     Pseudo is Ultrasoft + core correction, Zval =  5.0
     Generated using "atomic" code by A. Dal Corso  v.5.1
     Using radial grid of 1147 points,  6 beta functions with: 
                l(1) =   0
                l(2) =   0
                l(3) =   1
                l(4) =   1
                l(5) =   2
                l(6) =   2
     Q(r) pseudized with 0 coefficients 


     atomic species   valence    mass     pseudopotential
        Fe            16.00    55.84500     Fe( 1.00)
        Na             9.00    22.98977     Na( 1.00)
        O              6.00    15.99940     O ( 1.00)
        P              5.00    30.97376     P ( 1.00)

     Starting magnetic structure 
     atomic species   magnetization
        Fe           0.312
        Na           0.000
        O            0.000
        P            0.000

     No symmetry found


                                    s                        frac. trans.

      isym =  1     identity                                     

 cryst.   s( 1) = (     1          0          0      )
                  (     0          1          0      )
                  (     0          0          1      )

 cart.    s( 1) = (  1.0000000  0.0000000  0.0000000 )
                  (  0.0000000  1.0000000  0.0000000 )
                  (  0.0000000  0.0000000  1.0000000 )


   Cartesian axes

     site n.     atom                  positions (alat units)
         1           Na  tau(   1) = (   0.9937840   0.0385953   0.1528560  )
         2           Fe  tau(   2) = (   0.2986740   0.4618677   0.4013999  )
         3           Fe  tau(   3) = (   0.2261460   0.2006324   0.2419688  )
         4           Fe  tau(   4) = (   0.6975520   0.1360145   0.0709150  )
         5           Fe  tau(   5) = (   0.7773350   0.3947805   0.2347816  )
         6           P   tau(   6) = (   0.0931440   0.3920799   0.1321215  )
         7           P   tau(   7) = (   0.3969020   0.1499987   0.4444656  )
         8           P   tau(   8) = (   0.9073800   0.1984124   0.3445900  )
         9           P   tau(   9) = (   0.6037890   0.4472925   0.0281620  )
        10           O   tau(  10) = (   0.1796790   0.4031174   0.2548165  )
        11           O   tau(  11) = (   0.3567140   0.1498421   0.1165300  )
        12           O   tau(  12) = (   0.8229580   0.1849200   0.2199344  )
        13           O   tau(  13) = (   0.6444220   0.4468066   0.3559920  )
        14           O   tau(  14) = (   0.4575890   0.4634065   0.0415204  )
        15           O   tau(  15) = (   0.0485940   0.1593545   0.3194996  )
        16           O   tau(  16) = (   0.5429300   0.1338076   0.4292150  )
        17           O   tau(  17) = (   0.9517230   0.4302325   0.1560238  )
        18           O   tau(  18) = (   0.1489580   0.4923729   0.0375090  )
        19           O   tau(  19) = (   0.3206220   0.0485518   0.3614772  )
        20           O   tau(  20) = (   0.8840090   0.3392566   0.3834719  )
        21           O   tau(  21) = (   0.6538890   0.3226245   0.1009955  )
        22           O   tau(  22) = (   0.8517680   0.1014779   0.4422446  )
        23           O   tau(  23) = (   0.6791950   0.5493829   0.1109073  )
        24           O   tau(  24) = (   0.1140230   0.2511898   0.0908274  )
        25           O   tau(  25) = (   0.3482900   0.2750963   0.3725917  )

   Crystallographic axes

     site n.     atom                  positions (cryst. coord.)
         1           Na  tau(   1) = (  0.9937840  0.0645850  0.3269070  )
         2           Fe  tau(   2) = (  0.2986740  0.7728840  0.8584580  )
         3           Fe  tau(   3) = (  0.2261460  0.3357360  0.5174890  )
         4           Fe  tau(   4) = (  0.6975520  0.2276050  0.1516630  )
         5           Fe  tau(   5) = (  0.7773350  0.6606210  0.5021180  )
         6           P   tau(   6) = (  0.0931440  0.6561020  0.2825630  )
         7           P   tau(   7) = (  0.3969020  0.2510060  0.9505610  )
         8           P   tau(   8) = (  0.9073800  0.3320210  0.7369610  )
         9           P   tau(   9) = (  0.6037890  0.7484940  0.0602290  )
        10           O   tau(  10) = (  0.1796790  0.6745720  0.5449660  )
        11           O   tau(  11) = (  0.3567140  0.2507440  0.2492180  )
        12           O   tau(  12) = (  0.8229580  0.3094430  0.4703650  )
        13           O   tau(  13) = (  0.6444220  0.7476810  0.7613460  )
        14           O   tau(  14) = (  0.4575890  0.7754590  0.0887980  )
        15           O   tau(  15) = (  0.0485940  0.2666620  0.6833010  )
        16           O   tau(  16) = (  0.5429300  0.2239120  0.9179450  )
        17           O   tau(  17) = (  0.9517230  0.7199460  0.3336820  )
        18           O   tau(  18) = (  0.1489580  0.8239310  0.0802190  )
        19           O   tau(  19) = (  0.3206220  0.0812460  0.7730770  )
        20           O   tau(  20) = (  0.8840090  0.5677080  0.8201160  )
        21           O   tau(  21) = (  0.6538890  0.5398760  0.2159950  )
        22           O   tau(  22) = (  0.8517680  0.1698120  0.9458110  )
        23           O   tau(  23) = (  0.6791950  0.9193310  0.2371930  )
        24           O   tau(  24) = (  0.1140230  0.4203380  0.1942490  )
        25           O   tau(  25) = (  0.3482900  0.4603430  0.7968470  )

     number of k points=   158  Marzari-Vanderbilt smearing, width (Ry)=  0.0073
                       cart. coord. in units 2pi/alat
        k(    1) = (   0.0000000   0.0000000   0.0000000), wk =   0.0031746
        k(    2) = (   0.0000000   0.0000000   0.2376289), wk =   0.0063492
        k(    3) = (   0.0000000   0.0000000   0.4752578), wk =   0.0063492
        k(    4) = (   0.0000000   0.0000000   0.7128867), wk =   0.0063492
        k(    5) = (   0.0000000   0.0000000   0.9505157), wk =   0.0063492
        k(    6) = (   0.0000000   0.2390555   0.0000000), wk =   0.0063492
        k(    7) = (   0.0000000   0.2390555   0.2376289), wk =   0.0063492
        k(    8) = (   0.0000000   0.2390555   0.4752578), wk =   0.0063492
        k(    9) = (   0.0000000   0.2390555   0.7128867), wk =   0.0063492
        k(   10) = (   0.0000000   0.2390555   0.9505157), wk =   0.0063492
        k(   11) = (   0.0000000   0.4781110   0.0000000), wk =   0.0063492
        k(   12) = (   0.0000000   0.4781110   0.2376289), wk =   0.0063492
        k(   13) = (   0.0000000   0.4781110   0.4752578), wk =   0.0063492
        k(   14) = (   0.0000000   0.4781110   0.7128867), wk =   0.0063492
        k(   15) = (   0.0000000   0.4781110   0.9505157), wk =   0.0063492
        k(   16) = (   0.0000000   0.7171664   0.0000000), wk =   0.0063492
        k(   17) = (   0.0000000   0.7171664   0.2376289), wk =   0.0063492
        k(   18) = (   0.0000000   0.7171664   0.4752578), wk =   0.0063492
        k(   19) = (   0.0000000   0.7171664   0.7128867), wk =   0.0063492
        k(   20) = (   0.0000000   0.7171664   0.9505157), wk =   0.0063492
        k(   21) = (   0.2000000   0.0000000   0.0000000), wk =   0.0063492
        k(   22) = (   0.2000000   0.0000000   0.2376289), wk =   0.0063492
        k(   23) = (   0.2000000   0.0000000   0.4752578), wk =   0.0063492
        k(   24) = (   0.2000000   0.0000000   0.7128867), wk =   0.0063492
        k(   25) = (   0.2000000   0.0000000   0.9505157), wk =   0.0063492
        k(   26) = (   0.2000000   0.2390555   0.0000000), wk =   0.0063492
        k(   27) = (   0.2000000   0.2390555   0.2376289), wk =   0.0063492
        k(   28) = (   0.2000000   0.2390555   0.4752578), wk =   0.0063492
        k(   29) = (   0.2000000   0.2390555   0.7128867), wk =   0.0063492
        k(   30) = (   0.2000000   0.2390555   0.9505157), wk =   0.0063492
        k(   31) = (   0.2000000   0.4781110   0.0000000), wk =   0.0063492
        k(   32) = (   0.2000000   0.4781110   0.2376289), wk =   0.0063492
        k(   33) = (   0.2000000   0.4781110   0.4752578), wk =   0.0063492
        k(   34) = (   0.2000000   0.4781110   0.7128867), wk =   0.0063492
        k(   35) = (   0.2000000   0.4781110   0.9505157), wk =   0.0063492
        k(   36) = (   0.2000000   0.7171664   0.0000000), wk =   0.0063492
        k(   37) = (   0.2000000   0.7171664   0.2376289), wk =   0.0063492
        k(   38) = (   0.2000000   0.7171664   0.4752578), wk =   0.0063492
        k(   39) = (   0.2000000   0.7171664   0.7128867), wk =   0.0063492
        k(   40) = (   0.2000000   0.7171664   0.9505157), wk =   0.0063492
        k(   41) = (   0.4000000   0.0000000   0.0000000), wk =   0.0063492
        k(   42) = (   0.4000000   0.0000000   0.2376289), wk =   0.0063492
        k(   43) = (   0.4000000   0.0000000   0.4752578), wk =   0.0063492
        k(   44) = (   0.4000000   0.0000000   0.7128867), wk =   0.0063492
        k(   45) = (   0.4000000   0.0000000   0.9505157), wk =   0.0063492
        k(   46) = (   0.4000000   0.2390555   0.0000000), wk =   0.0063492
        k(   47) = (   0.4000000   0.2390555   0.2376289), wk =   0.0063492
        k(   48) = (   0.4000000   0.2390555   0.4752578), wk =   0.0063492
        k(   49) = (   0.4000000   0.2390555   0.7128867), wk =   0.0063492
        k(   50) = (   0.4000000   0.2390555   0.9505157), wk =   0.0063492
        k(   51) = (   0.4000000   0.4781110   0.0000000), wk =   0.0063492
        k(   52) = (   0.4000000   0.4781110   0.2376289), wk =   0.0063492
        k(   53) = (   0.4000000   0.4781110   0.4752578), wk =   0.0063492
        k(   54) = (   0.4000000   0.4781110   0.7128867), wk =   0.0063492
        k(   55) = (   0.4000000   0.4781110   0.9505157), wk =   0.0063492
        k(   56) = (   0.4000000   0.7171664   0.0000000), wk =   0.0063492
        k(   57) = (   0.4000000   0.7171664   0.2376289), wk =   0.0063492
        k(   58) = (   0.4000000   0.7171664   0.4752578), wk =   0.0063492
        k(   59) = (   0.4000000   0.7171664   0.7128867), wk =   0.0063492
        k(   60) = (   0.4000000   0.7171664   0.9505157), wk =   0.0063492
        k(   61) = (   0.0000000  -0.2390555   0.2376289), wk =   0.0063492
        k(   62) = (   0.0000000  -0.2390555   0.4752578), wk =   0.0063492
        k(   63) = (   0.0000000  -0.2390555   0.7128867), wk =   0.0063492
        k(   64) = (   0.0000000  -0.2390555   0.9505157), wk =   0.0063492
        k(   65) = (   0.0000000  -0.4781110   0.2376289), wk =   0.0063492
        k(   66) = (   0.0000000  -0.4781110   0.4752578), wk =   0.0063492
        k(   67) = (   0.0000000  -0.4781110   0.7128867), wk =   0.0063492
        k(   68) = (   0.0000000  -0.4781110   0.9505157), wk =   0.0063492
        k(   69) = (   0.0000000  -0.7171664   0.2376289), wk =   0.0063492
        k(   70) = (   0.0000000  -0.7171664   0.4752578), wk =   0.0063492
        k(   71) = (   0.0000000  -0.7171664   0.7128867), wk =   0.0063492
        k(   72) = (   0.0000000  -0.7171664   0.9505157), wk =   0.0063492
        k(   73) = (  -0.2000000   0.0000000   0.2376289), wk =   0.0063492
        k(   74) = (  -0.2000000   0.0000000   0.4752578), wk =   0.0063492
        k(   75) = (  -0.2000000   0.0000000   0.7128867), wk =   0.0063492
        k(   76) = (  -0.2000000   0.0000000   0.9505157), wk =   0.0063492
        k(   77) = (  -0.2000000   0.2390555   0.0000000), wk =   0.0063492
        k(   78) = (  -0.2000000  -0.2390555   0.2376289), wk =   0.0063492
        k(   79) = (  -0.2000000   0.2390555  -0.2376289), wk =   0.0063492
        k(   80) = (   0.2000000  -0.2390555  -0.2376289), wk =   0.0063492
        k(   81) = (  -0.2000000  -0.2390555   0.4752578), wk =   0.0063492
        k(   82) = (  -0.2000000   0.2390555  -0.4752578), wk =   0.0063492
        k(   83) = (   0.2000000  -0.2390555  -0.4752578), wk =   0.0063492
        k(   84) = (  -0.2000000  -0.2390555   0.7128867), wk =   0.0063492
        k(   85) = (  -0.2000000   0.2390555  -0.7128867), wk =   0.0063492
        k(   86) = (   0.2000000  -0.2390555  -0.7128867), wk =   0.0063492
        k(   87) = (  -0.2000000  -0.2390555   0.9505157), wk =   0.0063492
        k(   88) = (  -0.2000000   0.2390555  -0.9505157), wk =   0.0063492
        k(   89) = (   0.2000000  -0.2390555  -0.9505157), wk =   0.0063492
        k(   90) = (  -0.2000000   0.4781110   0.0000000), wk =   0.0063492
        k(   91) = (  -0.2000000  -0.4781110   0.2376289), wk =   0.0063492
        k(   92) = (  -0.2000000   0.4781110  -0.2376289), wk =   0.0063492
        k(   93) = (   0.2000000  -0.4781110  -0.2376289), wk =   0.0063492
        k(   94) = (  -0.2000000  -0.4781110   0.4752578), wk =   0.0063492
        k(   95) = (  -0.2000000   0.4781110  -0.4752578), wk =   0.0063492
        k(   96) = (   0.2000000  -0.4781110  -0.4752578), wk =   0.0063492
        k(   97) = (  -0.2000000  -0.4781110   0.7128867), wk =   0.0063492
        k(   98) = (  -0.2000000   0.4781110  -0.7128867), wk =   0.0063492
        k(   99) = (   0.2000000  -0.4781110  -0.7128867), wk =   0.0063492
        k(  100) = (  -0.2000000  -0.4781110   0.9505157), wk =   0.0063492
        k(  101) = (  -0.2000000   0.4781110  -0.9505157), wk =   0.0063492
        k(  102) = (   0.2000000  -0.4781110  -0.9505157), wk =   0.0063492
        k(  103) = (  -0.2000000   0.7171664   0.0000000), wk =   0.0063492
        k(  104) = (  -0.2000000  -0.7171664   0.2376289), wk =   0.0063492
        k(  105) = (  -0.2000000   0.7171664  -0.2376289), wk =   0.0063492
        k(  106) = (   0.2000000  -0.7171664  -0.2376289), wk =   0.0063492
        k(  107) = (  -0.2000000  -0.7171664   0.4752578), wk =   0.0063492
        k(  108) = (  -0.2000000   0.7171664  -0.4752578), wk =   0.0063492
        k(  109) = (   0.2000000  -0.7171664  -0.4752578), wk =   0.0063492
        k(  110) = (  -0.2000000  -0.7171664   0.7128867), wk =   0.0063492
        k(  111) = (  -0.2000000   0.7171664  -0.7128867), wk =   0.0063492
        k(  112) = (   0.2000000  -0.7171664  -0.7128867), wk =   0.0063492
        k(  113) = (  -0.2000000  -0.7171664   0.9505157), wk =   0.0063492
        k(  114) = (  -0.2000000   0.7171664  -0.9505157), wk =   0.0063492
        k(  115) = (   0.2000000  -0.7171664  -0.9505157), wk =   0.0063492
        k(  116) = (  -0.4000000   0.0000000   0.2376289), wk =   0.0063492
        k(  117) = (  -0.4000000   0.0000000   0.4752578), wk =   0.0063492
        k(  118) = (  -0.4000000   0.0000000   0.7128867), wk =   0.0063492
        k(  119) = (  -0.4000000   0.0000000   0.9505157), wk =   0.0063492
        k(  120) = (  -0.4000000   0.2390555   0.0000000), wk =   0.0063492
        k(  121) = (  -0.4000000  -0.2390555   0.2376289), wk =   0.0063492
        k(  122) = (  -0.4000000   0.2390555  -0.2376289), wk =   0.0063492
        k(  123) = (   0.4000000  -0.2390555  -0.2376289), wk =   0.0063492
        k(  124) = (  -0.4000000  -0.2390555   0.4752578), wk =   0.0063492
        k(  125) = (  -0.4000000   0.2390555  -0.4752578), wk =   0.0063492
        k(  126) = (   0.4000000  -0.2390555  -0.4752578), wk =   0.0063492
        k(  127) = (  -0.4000000  -0.2390555   0.7128867), wk =   0.0063492
        k(  128) = (  -0.4000000   0.2390555  -0.7128867), wk =   0.0063492
        k(  129) = (   0.4000000  -0.2390555  -0.7128867), wk =   0.0063492
        k(  130) = (  -0.4000000  -0.2390555   0.9505157), wk =   0.0063492
        k(  131) = (  -0.4000000   0.2390555  -0.9505157), wk =   0.0063492
        k(  132) = (   0.4000000  -0.2390555  -0.9505157), wk =   0.0063492
        k(  133) = (  -0.4000000   0.4781110   0.0000000), wk =   0.0063492
        k(  134) = (  -0.4000000  -0.4781110   0.2376289), wk =   0.0063492
        k(  135) = (  -0.4000000   0.4781110  -0.2376289), wk =   0.0063492
        k(  136) = (   0.4000000  -0.4781110  -0.2376289), wk =   0.0063492
        k(  137) = (  -0.4000000  -0.4781110   0.4752578), wk =   0.0063492
        k(  138) = (  -0.4000000   0.4781110  -0.4752578), wk =   0.0063492
        k(  139) = (   0.4000000  -0.4781110  -0.4752578), wk =   0.0063492
        k(  140) = (  -0.4000000  -0.4781110   0.7128867), wk =   0.0063492
        k(  141) = (  -0.4000000   0.4781110  -0.7128867), wk =   0.0063492
        k(  142) = (   0.4000000  -0.4781110  -0.7128867), wk =   0.0063492
        k(  143) = (  -0.4000000  -0.4781110   0.9505157), wk =   0.0063492
        k(  144) = (  -0.4000000   0.4781110  -0.9505157), wk =   0.0063492
        k(  145) = (   0.4000000  -0.4781110  -0.9505157), wk =   0.0063492
        k(  146) = (  -0.4000000   0.7171664   0.0000000), wk =   0.0063492
        k(  147) = (  -0.4000000  -0.7171664   0.2376289), wk =   0.0063492
        k(  148) = (  -0.4000000   0.7171664  -0.2376289), wk =   0.0063492
        k(  149) = (   0.4000000  -0.7171664  -0.2376289), wk =   0.0063492
        k(  150) = (  -0.4000000  -0.7171664   0.4752578), wk =   0.0063492
        k(  151) = (  -0.4000000   0.7171664  -0.4752578), wk =   0.0063492
        k(  152) = (   0.4000000  -0.7171664  -0.4752578), wk =   0.0063492
        k(  153) = (  -0.4000000  -0.7171664   0.7128867), wk =   0.0063492
        k(  154) = (  -0.4000000   0.7171664  -0.7128867), wk =   0.0063492
        k(  155) = (   0.4000000  -0.7171664  -0.7128867), wk =   0.0063492
        k(  156) = (  -0.4000000  -0.7171664   0.9505157), wk =   0.0063492
        k(  157) = (  -0.4000000   0.7171664  -0.9505157), wk =   0.0063492
        k(  158) = (   0.4000000  -0.7171664  -0.9505157), wk =   0.0063492

                       cryst. coord.
        k(    1) = (   0.0000000   0.0000000   0.0000000), wk =   0.0031746
        k(    2) = (   0.0000000   0.0000000   0.1111111), wk =   0.0063492
        k(    3) = (   0.0000000   0.0000000   0.2222222), wk =   0.0063492
        k(    4) = (   0.0000000   0.0000000   0.3333333), wk =   0.0063492
        k(    5) = (   0.0000000   0.0000000   0.4444444), wk =   0.0063492
        k(    6) = (   0.0000000   0.1428571   0.0000000), wk =   0.0063492
        k(    7) = (   0.0000000   0.1428571   0.1111111), wk =   0.0063492
        k(    8) = (   0.0000000   0.1428571   0.2222222), wk =   0.0063492
        k(    9) = (   0.0000000   0.1428571   0.3333333), wk =   0.0063492
        k(   10) = (   0.0000000   0.1428571   0.4444444), wk =   0.0063492
        k(   11) = (   0.0000000   0.2857143   0.0000000), wk =   0.0063492
        k(   12) = (   0.0000000   0.2857143   0.1111111), wk =   0.0063492
        k(   13) = (   0.0000000   0.2857143   0.2222222), wk =   0.0063492
        k(   14) = (   0.0000000   0.2857143   0.3333333), wk =   0.0063492
        k(   15) = (   0.0000000   0.2857143   0.4444444), wk =   0.0063492
        k(   16) = (   0.0000000   0.4285714   0.0000000), wk =   0.0063492
        k(   17) = (   0.0000000   0.4285714   0.1111111), wk =   0.0063492
        k(   18) = (   0.0000000   0.4285714   0.2222222), wk =   0.0063492
        k(   19) = (   0.0000000   0.4285714   0.3333333), wk =   0.0063492
        k(   20) = (   0.0000000   0.4285714   0.4444444), wk =   0.0063492
        k(   21) = (   0.2000000   0.0000000   0.0000000), wk =   0.0063492
        k(   22) = (   0.2000000   0.0000000   0.1111111), wk =   0.0063492
        k(   23) = (   0.2000000   0.0000000   0.2222222), wk =   0.0063492
        k(   24) = (   0.2000000   0.0000000   0.3333333), wk =   0.0063492
        k(   25) = (   0.2000000   0.0000000   0.4444444), wk =   0.0063492
        k(   26) = (   0.2000000   0.1428571   0.0000000), wk =   0.0063492
        k(   27) = (   0.2000000   0.1428571   0.1111111), wk =   0.0063492
        k(   28) = (   0.2000000   0.1428571   0.2222222), wk =   0.0063492
        k(   29) = (   0.2000000   0.1428571   0.3333333), wk =   0.0063492
        k(   30) = (   0.2000000   0.1428571   0.4444444), wk =   0.0063492
        k(   31) = (   0.2000000   0.2857143   0.0000000), wk =   0.0063492
        k(   32) = (   0.2000000   0.2857143   0.1111111), wk =   0.0063492
        k(   33) = (   0.2000000   0.2857143   0.2222222), wk =   0.0063492
        k(   34) = (   0.2000000   0.2857143   0.3333333), wk =   0.0063492
        k(   35) = (   0.2000000   0.2857143   0.4444444), wk =   0.0063492
        k(   36) = (   0.2000000   0.4285714   0.0000000), wk =   0.0063492
        k(   37) = (   0.2000000   0.4285714   0.1111111), wk =   0.0063492
        k(   38) = (   0.2000000   0.4285714   0.2222222), wk =   0.0063492
        k(   39) = (   0.2000000   0.4285714   0.3333333), wk =   0.0063492
        k(   40) = (   0.2000000   0.4285714   0.4444444), wk =   0.0063492
        k(   41) = (   0.4000000   0.0000000   0.0000000), wk =   0.0063492
        k(   42) = (   0.4000000   0.0000000   0.1111111), wk =   0.0063492
        k(   43) = (   0.4000000   0.0000000   0.2222222), wk =   0.0063492
        k(   44) = (   0.4000000   0.0000000   0.3333333), wk =   0.0063492
        k(   45) = (   0.4000000   0.0000000   0.4444444), wk =   0.0063492
        k(   46) = (   0.4000000   0.1428571   0.0000000), wk =   0.0063492
        k(   47) = (   0.4000000   0.1428571   0.1111111), wk =   0.0063492
        k(   48) = (   0.4000000   0.1428571   0.2222222), wk =   0.0063492
        k(   49) = (   0.4000000   0.1428571   0.3333333), wk =   0.0063492
        k(   50) = (   0.4000000   0.1428571   0.4444444), wk =   0.0063492
        k(   51) = (   0.4000000   0.2857143   0.0000000), wk =   0.0063492
        k(   52) = (   0.4000000   0.2857143   0.1111111), wk =   0.0063492
        k(   53) = (   0.4000000   0.2857143   0.2222222), wk =   0.0063492
        k(   54) = (   0.4000000   0.2857143   0.3333333), wk =   0.0063492
        k(   55) = (   0.4000000   0.2857143   0.4444444), wk =   0.0063492
        k(   56) = (   0.4000000   0.4285714   0.0000000), wk =   0.0063492
        k(   57) = (   0.4000000   0.4285714   0.1111111), wk =   0.0063492
        k(   58) = (   0.4000000   0.4285714   0.2222222), wk =   0.0063492
        k(   59) = (   0.4000000   0.4285714   0.3333333), wk =   0.0063492
        k(   60) = (   0.4000000   0.4285714   0.4444444), wk =   0.0063492
        k(   61) = (   0.0000000  -0.1428571   0.1111111), wk =   0.0063492
        k(   62) = (   0.0000000  -0.1428571   0.2222222), wk =   0.0063492
        k(   63) = (   0.0000000  -0.1428571   0.3333333), wk =   0.0063492
        k(   64) = (   0.0000000  -0.1428571   0.4444444), wk =   0.0063492
        k(   65) = (   0.0000000  -0.2857143   0.1111111), wk =   0.0063492
        k(   66) = (   0.0000000  -0.2857143   0.2222222), wk =   0.0063492
        k(   67) = (   0.0000000  -0.2857143   0.3333333), wk =   0.0063492
        k(   68) = (   0.0000000  -0.2857143   0.4444444), wk =   0.0063492
        k(   69) = (   0.0000000  -0.4285714   0.1111111), wk =   0.0063492
        k(   70) = (   0.0000000  -0.4285714   0.2222222), wk =   0.0063492
        k(   71) = (   0.0000000  -0.4285714   0.3333333), wk =   0.0063492
        k(   72) = (   0.0000000  -0.4285714   0.4444444), wk =   0.0063492
        k(   73) = (  -0.2000000   0.0000000   0.1111111), wk =   0.0063492
        k(   74) = (  -0.2000000   0.0000000   0.2222222), wk =   0.0063492
        k(   75) = (  -0.2000000   0.0000000   0.3333333), wk =   0.0063492
        k(   76) = (  -0.2000000   0.0000000   0.4444444), wk =   0.0063492
        k(   77) = (  -0.2000000   0.1428571   0.0000000), wk =   0.0063492
        k(   78) = (  -0.2000000  -0.1428571   0.1111111), wk =   0.0063492
        k(   79) = (  -0.2000000   0.1428571  -0.1111111), wk =   0.0063492
        k(   80) = (   0.2000000  -0.1428571  -0.1111111), wk =   0.0063492
        k(   81) = (  -0.2000000  -0.1428571   0.2222222), wk =   0.0063492
        k(   82) = (  -0.2000000   0.1428571  -0.2222222), wk =   0.0063492
        k(   83) = (   0.2000000  -0.1428571  -0.2222222), wk =   0.0063492
        k(   84) = (  -0.2000000  -0.1428571   0.3333333), wk =   0.0063492
        k(   85) = (  -0.2000000   0.1428571  -0.3333333), wk =   0.0063492
        k(   86) = (   0.2000000  -0.1428571  -0.3333333), wk =   0.0063492
        k(   87) = (  -0.2000000  -0.1428571   0.4444444), wk =   0.0063492
        k(   88) = (  -0.2000000   0.1428571  -0.4444444), wk =   0.0063492
        k(   89) = (   0.2000000  -0.1428571  -0.4444444), wk =   0.0063492
        k(   90) = (  -0.2000000   0.2857143   0.0000000), wk =   0.0063492
        k(   91) = (  -0.2000000  -0.2857143   0.1111111), wk =   0.0063492
        k(   92) = (  -0.2000000   0.2857143  -0.1111111), wk =   0.0063492
        k(   93) = (   0.2000000  -0.2857143  -0.1111111), wk =   0.0063492
        k(   94) = (  -0.2000000  -0.2857143   0.2222222), wk =   0.0063492
        k(   95) = (  -0.2000000   0.2857143  -0.2222222), wk =   0.0063492
        k(   96) = (   0.2000000  -0.2857143  -0.2222222), wk =   0.0063492
        k(   97) = (  -0.2000000  -0.2857143   0.3333333), wk =   0.0063492
        k(   98) = (  -0.2000000   0.2857143  -0.3333333), wk =   0.0063492
        k(   99) = (   0.2000000  -0.2857143  -0.3333333), wk =   0.0063492
        k(  100) = (  -0.2000000  -0.2857143   0.4444444), wk =   0.0063492
        k(  101) = (  -0.2000000   0.2857143  -0.4444444), wk =   0.0063492
        k(  102) = (   0.2000000  -0.2857143  -0.4444444), wk =   0.0063492
        k(  103) = (  -0.2000000   0.4285714   0.0000000), wk =   0.0063492
        k(  104) = (  -0.2000000  -0.4285714   0.1111111), wk =   0.0063492
        k(  105) = (  -0.2000000   0.4285714  -0.1111111), wk =   0.0063492
        k(  106) = (   0.2000000  -0.4285714  -0.1111111), wk =   0.0063492
        k(  107) = (  -0.2000000  -0.4285714   0.2222222), wk =   0.0063492
        k(  108) = (  -0.2000000   0.4285714  -0.2222222), wk =   0.0063492
        k(  109) = (   0.2000000  -0.4285714  -0.2222222), wk =   0.0063492
        k(  110) = (  -0.2000000  -0.4285714   0.3333333), wk =   0.0063492
        k(  111) = (  -0.2000000   0.4285714  -0.3333333), wk =   0.0063492
        k(  112) = (   0.2000000  -0.4285714  -0.3333333), wk =   0.0063492
        k(  113) = (  -0.2000000  -0.4285714   0.4444444), wk =   0.0063492
        k(  114) = (  -0.2000000   0.4285714  -0.4444444), wk =   0.0063492
        k(  115) = (   0.2000000  -0.4285714  -0.4444444), wk =   0.0063492
        k(  116) = (  -0.4000000   0.0000000   0.1111111), wk =   0.0063492
        k(  117) = (  -0.4000000   0.0000000   0.2222222), wk =   0.0063492
        k(  118) = (  -0.4000000   0.0000000   0.3333333), wk =   0.0063492
        k(  119) = (  -0.4000000   0.0000000   0.4444444), wk =   0.0063492
        k(  120) = (  -0.4000000   0.1428571   0.0000000), wk =   0.0063492
        k(  121) = (  -0.4000000  -0.1428571   0.1111111), wk =   0.0063492
        k(  122) = (  -0.4000000   0.1428571  -0.1111111), wk =   0.0063492
        k(  123) = (   0.4000000  -0.1428571  -0.1111111), wk =   0.0063492
        k(  124) = (  -0.4000000  -0.1428571   0.2222222), wk =   0.0063492
        k(  125) = (  -0.4000000   0.1428571  -0.2222222), wk =   0.0063492
        k(  126) = (   0.4000000  -0.1428571  -0.2222222), wk =   0.0063492
        k(  127) = (  -0.4000000  -0.1428571   0.3333333), wk =   0.0063492
        k(  128) = (  -0.4000000   0.1428571  -0.3333333), wk =   0.0063492
        k(  129) = (   0.4000000  -0.1428571  -0.3333333), wk =   0.0063492
        k(  130) = (  -0.4000000  -0.1428571   0.4444444), wk =   0.0063492
        k(  131) = (  -0.4000000   0.1428571  -0.4444444), wk =   0.0063492
        k(  132) = (   0.4000000  -0.1428571  -0.4444444), wk =   0.0063492
        k(  133) = (  -0.4000000   0.2857143   0.0000000), wk =   0.0063492
        k(  134) = (  -0.4000000  -0.2857143   0.1111111), wk =   0.0063492
        k(  135) = (  -0.4000000   0.2857143  -0.1111111), wk =   0.0063492
        k(  136) = (   0.4000000  -0.2857143  -0.1111111), wk =   0.0063492
        k(  137) = (  -0.4000000  -0.2857143   0.2222222), wk =   0.0063492
        k(  138) = (  -0.4000000   0.2857143  -0.2222222), wk =   0.0063492
        k(  139) = (   0.4000000  -0.2857143  -0.2222222), wk =   0.0063492
        k(  140) = (  -0.4000000  -0.2857143   0.3333333), wk =   0.0063492
        k(  141) = (  -0.4000000   0.2857143  -0.3333333), wk =   0.0063492
        k(  142) = (   0.4000000  -0.2857143  -0.3333333), wk =   0.0063492
        k(  143) = (  -0.4000000  -0.2857143   0.4444444), wk =   0.0063492
        k(  144) = (  -0.4000000   0.2857143  -0.4444444), wk =   0.0063492
        k(  145) = (   0.4000000  -0.2857143  -0.4444444), wk =   0.0063492
        k(  146) = (  -0.4000000   0.4285714   0.0000000), wk =   0.0063492
        k(  147) = (  -0.4000000  -0.4285714   0.1111111), wk =   0.0063492
        k(  148) = (  -0.4000000   0.4285714  -0.1111111), wk =   0.0063492
        k(  149) = (   0.4000000  -0.4285714  -0.1111111), wk =   0.0063492
        k(  150) = (  -0.4000000  -0.4285714   0.2222222), wk =   0.0063492
        k(  151) = (  -0.4000000   0.4285714  -0.2222222), wk =   0.0063492
        k(  152) = (   0.4000000  -0.4285714  -0.2222222), wk =   0.0063492
        k(  153) = (  -0.4000000  -0.4285714   0.3333333), wk =   0.0063492
        k(  154) = (  -0.4000000   0.4285714  -0.3333333), wk =   0.0063492
        k(  155) = (   0.4000000  -0.4285714  -0.3333333), wk =   0.0063492
        k(  156) = (  -0.4000000  -0.4285714   0.4444444), wk =   0.0063492
        k(  157) = (  -0.4000000   0.4285714  -0.4444444), wk =   0.0063492
        k(  158) = (   0.4000000  -0.4285714  -0.4444444), wk =   0.0063492

     Dense  grid:  1338317 G-vectors     FFT dimensions: ( 216, 125, 100)

     Smooth grid:   301689 G-vectors     FFT dimensions: ( 128,  80,  60)

     Dynamical RAM for                 wfc:       2.05 MB

     Dynamical RAM for     wfc (w. buffer):     649.58 MB

     Dynamical RAM for           str. fact:       2.55 MB

     Dynamical RAM for           local pot:       0.00 MB

     Dynamical RAM for          nlocal pot:       5.03 MB

     Dynamical RAM for                qrad:      10.54 MB

     Dynamical RAM for          rho,v,vnew:       8.77 MB

     Dynamical RAM for               rhoin:       2.92 MB

     Dynamical RAM for            rho*nmix:      20.42 MB

     Dynamical RAM for           G-vectors:       2.47 MB

     Dynamical RAM for          h,s,v(r/c):       2.38 MB

     Dynamical RAM for          <psi|beta>:       0.49 MB

     Dynamical RAM for                 psi:       4.10 MB

     Dynamical RAM for                hpsi:       4.10 MB

     Dynamical RAM for                spsi:       4.10 MB

     Dynamical RAM for      wfcinit/wfcrot:       5.36 MB

     Dynamical RAM for           addusdens:     129.55 MB

     Dynamical RAM for          addusforce:     148.82 MB

     Dynamical RAM for         addusstress:     129.23 MB

     Estimated static dynamical RAM per process >     710.42 MB

     Estimated max dynamical RAM per process >     859.24 MB

     Estimated total dynamical RAM >      26.85 GB

     Check: negative core charge=   -0.000003
     Generating pointlists ...
     new r_m :   0.0762 (alat units)  1.5229 (a.u.) for type    1
     new r_m :   0.0867 (alat units)  1.7338 (a.u.) for type    2
     new r_m :   0.0599 (alat units)  1.1984 (a.u.) for type    3
     new r_m :   0.0599 (alat units)  1.1984 (a.u.) for type    4

     Initial potential from superposition of free atoms

     starting charge  188.99132, renormalised to  189.00000
     Starting wfcs are  137 randomized atomic wfcs
     Checking if some PAW data can be deallocated... 
       PAW data deallocated on   24 nodes for type:  1
       PAW data deallocated on   16 nodes for type:  3

     total cpu time spent up to now is     1389.1 secs

     Self-consistent Calculation

     iteration #  1     ecut=   100.00 Ry     beta= 0.40
     Davidson diagonalization with overlap
     ethr =  1.00E-02,  avg # of iterations =  3.0

     negative rho (up, down):  0.000E+00 6.726E-05

     total cpu time spent up to now is     5038.7 secs

     total energy              =   -2123.82898435 Ry
     estimated scf accuracy    <       6.94318579 Ry

     total magnetization       =    19.00 Bohr mag/cell
     absolute magnetization    =    19.00 Bohr mag/cell

     iteration #  2     ecut=   100.00 Ry     beta= 0.40
     Davidson diagonalization with overlap
     ethr =  3.67E-03,  avg # of iterations =  2.0

     negative rho (up, down):  0.000E+00 3.836E-05

     total cpu time spent up to now is     8480.2 secs

     total energy              =   -2121.71289588 Ry
     estimated scf accuracy    <      26.33705080 Ry

     total magnetization       =     8.96 Bohr mag/cell
     absolute magnetization    =     9.82 Bohr mag/cell

     iteration #  3     ecut=   100.00 Ry     beta= 0.40
     Davidson diagonalization with overlap
     ethr =  3.67E-03,  avg # of iterations =  2.0

     negative rho (up, down):  0.000E+00 2.876E-05

     total cpu time spent up to now is    11384.0 secs

     total energy              =   -2124.37265286 Ry
     estimated scf accuracy    <      30.38857945 Ry

     total magnetization       =    11.00 Bohr mag/cell
     absolute magnetization    =    11.99 Bohr mag/cell

     iteration #  4     ecut=   100.00 Ry     beta= 0.40
     Davidson diagonalization with overlap
     ethr =  3.67E-03,  avg # of iterations =  2.0

     negative rho (up, down):  0.000E+00 7.012E-05

     total cpu time spent up to now is    14212.7 secs

     total energy              =   -2125.47446097 Ry
     estimated scf accuracy    <      11.09700333 Ry

     total magnetization       =    14.79 Bohr mag/cell
     absolute magnetization    =    15.07 Bohr mag/cell

     iteration #  5     ecut=   100.00 Ry     beta= 0.40
     Davidson diagonalization with overlap
     ethr =  3.67E-03,  avg # of iterations =  1.5

     negative rho (up, down):  0.000E+00 9.435E-05

     total cpu time spent up to now is    16972.8 secs

     total energy              =   -2125.64843561 Ry
     estimated scf accuracy    <       6.87821393 Ry

     total magnetization       =    14.97 Bohr mag/cell
     absolute magnetization    =    15.11 Bohr mag/cell

     iteration #  6     ecut=   100.00 Ry     beta= 0.40
     Davidson diagonalization with overlap
     ethr =  3.64E-03,  avg # of iterations =  1.0

     negative rho (up, down):  0.000E+00 2.520E-04

     total cpu time spent up to now is    19677.1 secs

     total energy              =   -2126.00608285 Ry
     estimated scf accuracy    <       0.76176847 Ry

     total magnetization       =    19.00 Bohr mag/cell
     absolute magnetization    =    19.00 Bohr mag/cell

     iteration #  7     ecut=   100.00 Ry     beta= 0.40
     Davidson diagonalization with overlap
     ethr =  4.03E-04,  avg # of iterations =  1.2

     negative rho (up, down):  0.000E+00 4.229E-04

     total cpu time spent up to now is    22394.6 secs

     total energy              =   -2125.99716980 Ry
     estimated scf accuracy    <       0.29110664 Ry

     total magnetization       =    19.00 Bohr mag/cell
     absolute magnetization    =    19.00 Bohr mag/cell

     iteration #  8     ecut=   100.00 Ry     beta= 0.40
     Davidson diagonalization with overlap
     c_bands:  1 eigenvalues not converged
     ethr =  1.54E-04,  avg # of iterations =  8.0

     negative rho (up, down):  0.000E+00 5.872E-04

     total cpu time spent up to now is    25811.6 secs

     total energy              =   -2126.00245914 Ry
     estimated scf accuracy    <       0.74697547 Ry

     total magnetization       =    19.00 Bohr mag/cell
     absolute magnetization    =    19.01 Bohr mag/cell

     iteration #  9     ecut=   100.00 Ry     beta= 0.40
     Davidson diagonalization with overlap
     ethr =  1.54E-04,  avg # of iterations =  1.3

     negative rho (up, down):  0.000E+00 8.209E-04

     total cpu time spent up to now is    28549.2 secs

     total energy              =   -2126.00861158 Ry
     estimated scf accuracy    <       0.17496189 Ry

     total magnetization       =    19.00 Bohr mag/cell
     absolute magnetization    =    19.01 Bohr mag/cell

     iteration # 10     ecut=   100.00 Ry     beta= 0.40
     Davidson diagonalization with overlap
     ethr =  9.26E-05,  avg # of iterations =  2.6

     negative rho (up, down):  0.000E+00 8.532E-04

     total cpu time spent up to now is    31421.6 secs

     total energy              =   -2126.01377261 Ry
     estimated scf accuracy    <       0.21204796 Ry

     total magnetization       =    19.00 Bohr mag/cell
     absolute magnetization    =    19.02 Bohr mag/cell

     iteration # 11     ecut=   100.00 Ry     beta= 0.40
     Davidson diagonalization with overlap
     ethr =  9.26E-05,  avg # of iterations =  1.1

     negative rho (up, down):  0.000E+00 8.957E-04

     total cpu time spent up to now is    34136.4 secs

     total energy              =   -2126.01907484 Ry
     estimated scf accuracy    <       0.02389623 Ry

     total magnetization       =    19.00 Bohr mag/cell
     absolute magnetization    =    19.02 Bohr mag/cell

     iteration # 12     ecut=   100.00 Ry     beta= 0.40
     Davidson diagonalization with overlap
     c_bands:  1 eigenvalues not converged
     c_bands:  1 eigenvalues not converged
     c_bands:  1 eigenvalues not converged
     c_bands:  1 eigenvalues not converged
     c_bands:  1 eigenvalues not converged
     c_bands:  1 eigenvalues not converged
     c_bands:  1 eigenvalues not converged
     ethr =  1.26E-05,  avg # of iterations = 14.0

     negative rho (up, down):  0.000E+00 9.165E-04

     total cpu time spent up to now is    38496.3 secs

     total energy              =   -2126.01920633 Ry
     estimated scf accuracy    <       0.06428387 Ry

     total magnetization       =    19.00 Bohr mag/cell
     absolute magnetization    =    19.03 Bohr mag/cell

     iteration # 13     ecut=   100.00 Ry     beta= 0.40
     Davidson diagonalization with overlap
     ethr =  1.26E-05,  avg # of iterations =  1.1

     negative rho (up, down):  0.000E+00 9.365E-04

     total cpu time spent up to now is    41209.1 secs

     total energy              =   -2126.02217280 Ry
     estimated scf accuracy    <       0.01556397 Ry

     total magnetization       =    19.00 Bohr mag/cell
     absolute magnetization    =    19.04 Bohr mag/cell

     iteration # 14     ecut=   100.00 Ry     beta= 0.40
     Davidson diagonalization with overlap
     ethr =  8.23E-06,  avg # of iterations =  1.0

     negative rho (up, down):  0.000E+00 9.454E-04

     total cpu time spent up to now is    43919.4 secs

     total energy              =   -2126.02228796 Ry
     estimated scf accuracy    <       0.01128450 Ry

     total magnetization       =    19.00 Bohr mag/cell
     absolute magnetization    =    19.04 Bohr mag/cell

     iteration # 15     ecut=   100.00 Ry     beta= 0.40
     Davidson diagonalization with overlap
     ethr =  5.97E-06,  avg # of iterations =  1.0

     negative rho (up, down):  0.000E+00 9.428E-04

     total cpu time spent up to now is    46634.9 secs

     total energy              =   -2126.02240224 Ry
     estimated scf accuracy    <       0.00505937 Ry

     total magnetization       =    19.00 Bohr mag/cell
     absolute magnetization    =    19.04 Bohr mag/cell

     iteration # 16     ecut=   100.00 Ry     beta= 0.40
     Davidson diagonalization with overlap
     c_bands:  1 eigenvalues not converged
     ethr =  2.68E-06,  avg # of iterations =  1.8

     negative rho (up, down):  0.000E+00 9.353E-04

     total cpu time spent up to now is    49418.5 secs

     total energy              =   -2126.02258338 Ry
     estimated scf accuracy    <       0.00023185 Ry

     total magnetization       =    19.00 Bohr mag/cell
     absolute magnetization    =    19.05 Bohr mag/cell

     iteration # 17     ecut=   100.00 Ry     beta= 0.40
     Davidson diagonalization with overlap
     c_bands:  1 eigenvalues not converged
     c_bands:  2 eigenvalues not converged
     c_bands:  1 eigenvalues not converged
     c_bands:  1 eigenvalues not converged
     ethr =  1.23E-07,  avg # of iterations =  6.4

     negative rho (up, down):  0.000E+00 9.303E-04

     total cpu time spent up to now is    55125.1 secs

     total energy              =   -2126.02280684 Ry
     estimated scf accuracy    <       0.00061874 Ry

     total magnetization       =    19.00 Bohr mag/cell
     absolute magnetization    =    19.05 Bohr mag/cell

     iteration # 18     ecut=   100.00 Ry     beta= 0.40
     Davidson diagonalization with overlap
     ethr =  1.23E-07,  avg # of iterations =  1.1

     negative rho (up, down):  0.000E+00 9.266E-04

     total cpu time spent up to now is    57835.9 secs

     total energy              =   -2126.02281545 Ry
     estimated scf accuracy    <       0.00013282 Ry

     total magnetization       =    19.00 Bohr mag/cell
     absolute magnetization    =    19.05 Bohr mag/cell

     iteration # 19     ecut=   100.00 Ry     beta= 0.40
     Davidson diagonalization with overlap
     ethr =  7.03E-08,  avg # of iterations =  1.0

     negative rho (up, down):  0.000E+00 9.247E-04

     total cpu time spent up to now is    60537.8 secs

     total energy              =   -2126.02281919 Ry
     estimated scf accuracy    <       0.00002157 Ry

     total magnetization       =    19.00 Bohr mag/cell
     absolute magnetization    =    19.05 Bohr mag/cell

     iteration # 20     ecut=   100.00 Ry     beta= 0.40
     Davidson diagonalization with overlap
     ethr =  1.14E-08,  avg # of iterations =  1.8

     negative rho (up, down):  0.000E+00 9.225E-04

     total cpu time spent up to now is    63330.0 secs

     total energy              =   -2126.02281949 Ry
     estimated scf accuracy    <       0.00008557 Ry

     total magnetization       =    19.00 Bohr mag/cell
     absolute magnetization    =    19.05 Bohr mag/cell

     iteration # 21     ecut=   100.00 Ry     beta= 0.40
     Davidson diagonalization with overlap
     ethr =  1.14E-08,  avg # of iterations =  1.5

     negative rho (up, down):  0.000E+00 9.229E-04

     total cpu time spent up to now is    66082.2 secs

     total energy              =   -2126.02282231 Ry
     estimated scf accuracy    <       0.00001314 Ry

     total magnetization       =    19.00 Bohr mag/cell
     absolute magnetization    =    19.05 Bohr mag/cell

     iteration # 22     ecut=   100.00 Ry     beta= 0.40
     Davidson diagonalization with overlap
     ethr =  6.95E-09,  avg # of iterations =  1.0

     negative rho (up, down):  0.000E+00 9.225E-04

     total cpu time spent up to now is    68787.8 secs

     total energy              =   -2126.02282281 Ry
     estimated scf accuracy    <       0.00000093 Ry

     total magnetization       =    19.00 Bohr mag/cell
     absolute magnetization    =    19.05 Bohr mag/cell

     iteration # 23     ecut=   100.00 Ry     beta= 0.40
     Davidson diagonalization with overlap
     ethr =  4.95E-10,  avg # of iterations =  4.8

     negative rho (up, down):  0.000E+00 9.233E-04

     total cpu time spent up to now is    72691.3 secs

     total energy              =   -2126.02282332 Ry
     estimated scf accuracy    <       0.00000096 Ry

     total magnetization       =    19.00 Bohr mag/cell
     absolute magnetization    =    19.05 Bohr mag/cell

     iteration # 24     ecut=   100.00 Ry     beta= 0.40
     Davidson diagonalization with overlap
     ethr =  4.95E-10,  avg # of iterations =  1.0

     negative rho (up, down):  0.000E+00 9.235E-04

     total cpu time spent up to now is    75394.6 secs

     total energy              =   -2126.02282341 Ry
     estimated scf accuracy    <       0.00000028 Ry

     total magnetization       =    19.00 Bohr mag/cell
     absolute magnetization    =    19.05 Bohr mag/cell

     iteration # 25     ecut=   100.00 Ry     beta= 0.40
     Davidson diagonalization with overlap
     ethr =  1.47E-10,  avg # of iterations =  2.1

     negative rho (up, down):  0.000E+00 9.239E-04

     total cpu time spent up to now is    78289.4 secs

     total energy              =   -2126.02282348 Ry
     estimated scf accuracy    <       0.00000025 Ry

     total magnetization       =    19.00 Bohr mag/cell
     absolute magnetization    =    19.05 Bohr mag/cell

     iteration # 26     ecut=   100.00 Ry     beta= 0.40
     Davidson diagonalization with overlap
     ethr =  1.34E-10,  avg # of iterations =  1.1

     negative rho (up, down):  0.000E+00 9.240E-04

     total cpu time spent up to now is    80998.1 secs

     total energy              =   -2126.02282350 Ry
     estimated scf accuracy    <       0.00000013 Ry

     total magnetization       =    19.00 Bohr mag/cell
     absolute magnetization    =    19.05 Bohr mag/cell

     iteration # 27     ecut=   100.00 Ry     beta= 0.40
     Davidson diagonalization with overlap
     ethr =  6.65E-11,  avg # of iterations =  2.0

     negative rho (up, down):  0.000E+00 9.239E-04

     total cpu time spent up to now is    83840.0 secs

     total energy              =   -2126.02282352 Ry
     estimated scf accuracy    <       0.00000002 Ry

     total magnetization       =    19.00 Bohr mag/cell
     absolute magnetization    =    19.05 Bohr mag/cell

     iteration # 28     ecut=   100.00 Ry     beta= 0.40
     Davidson diagonalization with overlap
     ethr =  9.67E-12,  avg # of iterations =  2.6

     negative rho (up, down):  0.000E+00 9.239E-04

     total cpu time spent up to now is    86971.6 secs

     total energy              =   -2126.02282353 Ry
     estimated scf accuracy    <          9.4E-09 Ry

     total magnetization       =    19.00 Bohr mag/cell
     absolute magnetization    =    19.05 Bohr mag/cell

     iteration # 29     ecut=   100.00 Ry     beta= 0.40
     Davidson diagonalization with overlap
     ethr =  4.96E-12,  avg # of iterations =  1.7

     negative rho (up, down):  0.000E+00 9.238E-04

     total cpu time spent up to now is    89762.6 secs

     total energy              =   -2126.02282353 Ry
     estimated scf accuracy    <       0.00000001 Ry

     total magnetization       =    19.00 Bohr mag/cell
     absolute magnetization    =    19.05 Bohr mag/cell

     iteration # 30     ecut=   100.00 Ry     beta= 0.40
     Davidson diagonalization with overlap
     ethr =  4.96E-12,  avg # of iterations =  2.0

     negative rho (up, down):  0.000E+00 9.238E-04

     total cpu time spent up to now is    92608.6 secs

     total energy              =   -2126.02282354 Ry
     estimated scf accuracy    <          2.0E-09 Ry

     total magnetization       =    19.00 Bohr mag/cell
     absolute magnetization    =    19.05 Bohr mag/cell

     iteration # 31     ecut=   100.00 Ry     beta= 0.40
     Davidson diagonalization with overlap
     ethr =  1.07E-12,  avg # of iterations =  2.9

     negative rho (up, down):  0.000E+00 9.238E-04

     total cpu time spent up to now is    95718.5 secs

     total energy              =   -2126.02282354 Ry
     estimated scf accuracy    <          8.1E-10 Ry

     total magnetization       =    19.00 Bohr mag/cell
     absolute magnetization    =    19.05 Bohr mag/cell

     iteration # 32     ecut=   100.00 Ry     beta= 0.40
     Davidson diagonalization with overlap
     ethr =  4.29E-13,  avg # of iterations =  3.5

     negative rho (up, down):  0.000E+00 9.238E-04

     total cpu time spent up to now is    98936.2 secs

     total energy              =   -2126.02282354 Ry
     estimated scf accuracy    <          3.8E-09 Ry

     total magnetization       =    19.00 Bohr mag/cell
     absolute magnetization    =    19.05 Bohr mag/cell

     iteration # 33     ecut=   100.00 Ry     beta= 0.40
     Davidson diagonalization with overlap
     ethr =  4.29E-13,  avg # of iterations =  1.0

     negative rho (up, down):  0.000E+00 9.238E-04

     Magnetic moment per site:
     atom:    1    charge:    7.9000    magn:    0.0011    constr:    0.0000
     atom:    2    charge:   12.9583    magn:    3.6303    constr:    0.0000
     atom:    3    charge:   12.9572    magn:    3.6391    constr:    0.0000
     atom:    4    charge:   12.9612    magn:    3.6279    constr:    0.0000
     atom:    5    charge:   12.9505    magn:    3.6518    constr:    0.0000
     atom:    6    charge:    0.8363    magn:    0.0094    constr:    0.0000
     atom:    7    charge:    0.8302    magn:    0.0108    constr:    0.0000
     atom:    8    charge:    0.8375    magn:    0.0094    constr:    0.0000
     atom:    9    charge:    0.8284    magn:    0.0104    constr:    0.0000
     atom:   10    charge:    4.2366    magn:    0.1591    constr:    0.0000
     atom:   11    charge:    4.2542    magn:    0.1096    constr:    0.0000
     atom:   12    charge:    4.2358    magn:    0.1386    constr:    0.0000
     atom:   13    charge:    4.2533    magn:    0.1135    constr:    0.0000
     atom:   14    charge:    4.2327    magn:    0.1174    constr:    0.0000
     atom:   15    charge:    4.2406    magn:    0.0897    constr:    0.0000
     atom:   16    charge:    4.2357    magn:    0.1219    constr:    0.0000
     atom:   17    charge:    4.2473    magn:    0.0926    constr:    0.0000
     atom:   18    charge:    4.2429    magn:    0.1300    constr:    0.0000
     atom:   19    charge:    4.2300    magn:    0.1432    constr:    0.0000
     atom:   20    charge:    4.2308    magn:    0.1320    constr:    0.0000
     atom:   21    charge:    4.2378    magn:    0.1556    constr:    0.0000
     atom:   22    charge:    4.2480    magn:    0.1281    constr:    0.0000
     atom:   23    charge:    4.2297    magn:    0.1417    constr:    0.0000
     atom:   24    charge:    4.2327    magn:    0.1164    constr:    0.0000
     atom:   25    charge:    4.2420    magn:    0.1592    constr:    0.0000

     total cpu time spent up to now is   101636.6 secs

     End of self-consistent calculation

 ------ SPIN UP ------------


          k = 0.0000 0.0000 0.0000 ( 37649 PWs)   bands (ev):

   -85.5868 -85.5441 -85.4156 -85.3970 -51.6565 -51.6541 -51.6458 -51.6396
   -51.5851 -51.5480 -51.4993 -51.4342 -51.3646 -51.3438 -51.2242 -51.1948
   -45.2149 -17.2809 -17.2038 -17.1790 -16.4012 -16.2095 -16.1504 -15.9704
   -14.1002 -13.9948 -13.9847 -13.9095 -13.8057 -13.7606 -13.7071 -13.6792
   -13.6386 -13.5866 -13.5308 -13.4533  -4.6144  -4.2520  -3.8809  -3.7453
    -2.4948  -2.3968  -2.0574  -2.0033  -1.6968  -1.5889  -1.5271  -1.4524
    -1.3873  -1.2527  -1.1896  -1.0821  -0.4910  -0.4151  -0.1712   0.0339
     0.0600   0.1175   0.1848   0.2870   0.4757   0.4855   0.6203   0.6898
     0.8616   0.9760   0.9988   1.0824   1.2244   1.2516   1.4352   1.5209
     1.6480   1.6992   1.7592   1.8765   1.9498   1.9842   2.0439   2.0746
     2.1767   2.3962   2.4728   2.5329   2.6471   2.6820   2.7605   2.9052
     2.9549   3.1170   3.1920   3.2179   3.3763   3.4599   3.5066   3.6028
     3.6808   3.6877   3.7711   3.8326   3.9583   4.0186   4.3621   4.4446
     8.4270  10.2794  10.6751  11.1807  11.5894  12.4623  12.5050  12.6430
    12.7069  12.8362

     occupation numbers 
     1.0000   1.0000   1.0000   1.0000   1.0000   1.0000   1.0000   1.0000
     1.0000   1.0000   1.0000   1.0000   1.0000   1.0000   1.0000   1.0000
     1.0000   1.0000   1.0000   1.0000   1.0000   1.0000   1.0000   1.0000
     1.0000   1.0000   1.0000   1.0000   1.0000   1.0000   1.0000   1.0000
     1.0000   1.0000   1.0000   1.0000   1.0000   1.0000   1.0000   1.0000
     1.0000   1.0000   1.0000   1.0000   1.0000   1.0000   1.0000   1.0000
     1.0000   1.0000   1.0000   1.0000   1.0000   1.0000   1.0000   1.0000
     1.0000   1.0000   1.0000   1.0000   1.0000   1.0000   1.0000   1.0000
     1.0000   1.0000   1.0000   1.0000   1.0000   1.0000   1.0000   1.0000
     1.0000   1.0000   1.0000   1.0000   1.0000   1.0000   1.0000   1.0000
     1.0000   1.0000   1.0000   1.0000   1.0000   1.0000   1.0000   1.0000
     1.0000   1.0000   1.0000   1.0000   1.0000   1.0000   1.0000   1.0000
     1.0000   1.0000   1.0000   1.0000   1.0000   1.0000   1.0000   1.0000
     0.0000   0.0000   0.0000   0.0000   0.0000   0.0000   0.0000   0.0000
     0.0000   0.0000

          k = 0.0000 0.0000 0.2376 ( 37659 PWs)   bands (ev):

   -85.5868 -85.5441 -85.4156 -85.3970 -51.6565 -51.6541 -51.6458 -51.6396
   -51.5851 -51.5480 -51.4993 -51.4342 -51.3646 -51.3438 -51.2242 -51.1948
   -45.2149 -17.2804 -17.2038 -17.1808 -16.3858 -16.2035 -16.1402 -15.9706
   -14.1133 -14.0270 -13.9669 -13.9100 -13.8088 -13.7615 -13.7175 -13.6816
   -13.6431 -13.5851 -13.5367 -13.4547  -4.5840  -4.2389  -3.8877  -3.7250
    -2.4736  -2.3852  -2.0782  -1.9686  -1.6967  -1.5884  -1.5068  -1.4581
    -1.3543  -1.2676  -1.2214  -1.0623  -0.4776  -0.4045  -0.1660  -0.0056
     0.0567   0.1150   0.2168   0.2643   0.4639   0.5250   0.6179   0.6671
     0.8200   0.9707   1.0050   1.1062   1.1859   1.3074   1.4373   1.5279
     1.6263   1.7017   1.7913   1.8667   1.8979   1.9377   2.0446   2.1069
     2.1735   2.3917   2.4710   2.5085   2.6339   2.6525   2.7675   2.8712
     2.9487   3.1293   3.1867   3.2291   3.3448   3.4581   3.5238   3.5751
     3.6617   3.6873   3.7671   3.8587   3.9527   4.0308   4.3561   4.4499
     8.5695  10.3405  10.7226  11.2064  11.6317  12.3319  12.5492  12.6350
    12.6815  12.7918

     occupation numbers 
     1.0000   1.0000   1.0000   1.0000   1.0000   1.0000   1.0000   1.0000
     1.0000   1.0000   1.0000   1.0000   1.0000   1.0000   1.0000   1.0000
     1.0000   1.0000   1.0000   1.0000   1.0000   1.0000   1.0000   1.0000
     1.0000   1.0000   1.0000   1.0000   1.0000   1.0000   1.0000   1.0000
     1.0000   1.0000   1.0000   1.0000   1.0000   1.0000   1.0000   1.0000
     1.0000   1.0000   1.0000   1.0000   1.0000   1.0000   1.0000   1.0000
     1.0000   1.0000   1.0000   1.0000   1.0000   1.0000   1.0000   1.0000
     1.0000   1.0000   1.0000   1.0000   1.0000   1.0000   1.0000   1.0000
     1.0000   1.0000   1.0000   1.0000   1.0000   1.0000   1.0000   1.0000
     1.0000   1.0000   1.0000   1.0000   1.0000   1.0000   1.0000   1.0000
     1.0000   1.0000   1.0000   1.0000   1.0000   1.0000   1.0000   1.0000
     1.0000   1.0000   1.0000   1.0000   1.0000   1.0000   1.0000   1.0000
     1.0000   1.0000   1.0000   1.0000   1.0000   1.0000   1.0000   1.0000
     0.0000   0.0000   0.0000   0.0000   0.0000   0.0000   0.0000   0.0000
     0.0000   0.0000

          k = 0.0000 0.0000 0.4753 ( 37654 PWs)   bands (ev):

   -85.5868 -85.5441 -85.4156 -85.3970 -51.6565 -51.6541 -51.6458 -51.6396
   -51.5851 -51.5480 -51.4993 -51.4342 -51.3646 -51.3438 -51.2242 -51.1948
   -45.2149 -17.2790 -17.2041 -17.1853 -16.3445 -16.1879 -16.1135 -15.9740
   -14.1484 -14.0756 -13.9562 -13.9159 -13.8213 -13.7578 -13.7338 -13.6881
   -13.6516 -13.5857 -13.5509 -13.4614  -4.5040  -4.2039  -3.8925  -3.6952
    -2.4418  -2.3369  -2.0646  -1.9396  -1.6985  -1.5755  -1.5191  -1.4008
    -1.3215  -1.2844  -1.2503  -1.0584  -0.4654  -0.3638  -0.1348  -0.0457
     0.0447   0.1094   0.2069   0.3188   0.4713   0.5417   0.5775   0.6731
     0.7933   0.9446   1.0050   1.0927   1.2039   1.3057   1.4504   1.5110
     1.5526   1.6763   1.7654   1.8282   1.8720   1.9459   2.0460   2.0987
     2.1928   2.3519   2.3939   2.4950   2.5097   2.6375   2.8011   2.8673
     2.9424   3.1469   3.1823   3.2204   3.2965   3.4707   3.5081   3.5881
     3.6250   3.6857   3.7512   3.9014   3.9382   4.0552   4.3504   4.4549
     8.9512  10.4949  10.8274  11.2795  11.7405  12.0513  12.5305  12.5672
    12.6295  12.7414

     occupation numbers 
     1.0000   1.0000   1.0000   1.0000   1.0000   1.0000   1.0000   1.0000
     1.0000   1.0000   1.0000   1.0000   1.0000   1.0000   1.0000   1.0000
     1.0000   1.0000   1.0000   1.0000   1.0000   1.0000   1.0000   1.0000
     1.0000   1.0000   1.0000   1.0000   1.0000   1.0000   1.0000   1.0000
     1.0000   1.0000   1.0000   1.0000   1.0000   1.0000   1.0000   1.0000
     1.0000   1.0000   1.0000   1.0000   1.0000   1.0000   1.0000   1.0000
     1.0000   1.0000   1.0000   1.0000   1.0000   1.0000   1.0000   1.0000
     1.0000   1.0000   1.0000   1.0000   1.0000   1.0000   1.0000   1.0000
     1.0000   1.0000   1.0000   1.0000   1.0000   1.0000   1.0000   1.0000
     1.0000   1.0000   1.0000   1.0000   1.0000   1.0000   1.0000   1.0000
     1.0000   1.0000   1.0000   1.0000   1.0000   1.0000   1.0000   1.0000
     1.0000   1.0000   1.0000   1.0000   1.0000   1.0000   1.0000   1.0000
     1.0000   1.0000   1.0000   1.0000   1.0000   1.0000   1.0000   1.0000
     0.0000   0.0000   0.0000   0.0000   0.0000   0.0000   0.0000   0.0000
     0.0000   0.0000

          k = 0.0000 0.0000 0.7129 ( 37702 PWs)   bands (ev):

   -85.5868 -85.5441 -85.4156 -85.3970 -51.6565 -51.6541 -51.6458 -51.6396
   -51.5851 -51.5480 -51.4993 -51.4342 -51.3646 -51.3438 -51.2242 -51.1948
   -45.2149 -17.2773 -17.2047 -17.1899 -16.2915 -16.1698 -16.0800 -15.9854
   -14.1892 -14.1260 -13.9535 -13.9299 -13.8393 -13.7673 -13.7187 -13.6942
   -13.6567 -13.5923 -13.5654 -13.4756  -4.4064  -4.1597  -3.8879  -3.6901
    -2.4197  -2.2737  -2.0036  -1.9279  -1.7097  -1.5558  -1.5495  -1.3852
    -1.3066  -1.2638  -1.2177  -1.0949  -0.4719  -0.3141  -0.0781   0.0049
     0.0219   0.1307   0.2351   0.3647   0.4891   0.5459   0.6077   0.6366
     0.8142   0.9066   0.9814   1.0446   1.1964   1.2411   1.3369   1.4294
     1.5336   1.5760   1.7398   1.8130   1.8976   1.9802   2.0203   2.0646
     2.2145   2.2613   2.2987   2.3652   2.5176   2.6877   2.8334   2.8879
     2.9645   3.1101   3.1667   3.2235   3.2888   3.5013   3.5201   3.5830
     3.6166   3.6760   3.7212   3.9057   3.9452   4.0806   4.3581   4.4483
     9.4731  10.6442  10.9214  11.3737  11.5590  12.0581  12.3887  12.4531
    12.5572  12.7267

     occupation numbers 
     1.0000   1.0000   1.0000   1.0000   1.0000   1.0000   1.0000   1.0000
     1.0000   1.0000   1.0000   1.0000   1.0000   1.0000   1.0000   1.0000
     1.0000   1.0000   1.0000   1.0000   1.0000   1.0000   1.0000   1.0000
     1.0000   1.0000   1.0000   1.0000   1.0000   1.0000   1.0000   1.0000
     1.0000   1.0000   1.0000   1.0000   1.0000   1.0000   1.0000   1.0000
     1.0000   1.0000   1.0000   1.0000   1.0000   1.0000   1.0000   1.0000
     1.0000   1.0000   1.0000   1.0000   1.0000   1.0000   1.0000   1.0000
     1.0000   1.0000   1.0000   1.0000   1.0000   1.0000   1.0000   1.0000
     1.0000   1.0000   1.0000   1.0000   1.0000   1.0000   1.0000   1.0000
     1.0000   1.0000   1.0000   1.0000   1.0000   1.0000   1.0000   1.0000
     1.0000   1.0000   1.0000   1.0000   1.0000   1.0000   1.0000   1.0000
     1.0000   1.0000   1.0000   1.0000   1.0000   1.0000   1.0000   1.0000
     1.0000   1.0000   1.0000   1.0000   1.0000   1.0000   1.0000   1.0000
     0.0000   0.0000   0.0000   0.0000   0.0000   0.0000   0.0000   0.0000
     0.0000   0.0000

          k = 0.0000 0.0000 0.9505 ( 37742 PWs)   bands (ev):

   -85.5868 -85.5441 -85.4156 -85.3970 -51.6565 -51.6541 -51.6458 -51.6396
   -51.5851 -51.5480 -51.4993 -51.4342 -51.3646 -51.3438 -51.2242 -51.1948
   -45.2149 -17.2762 -17.2054 -17.1926 -16.2512 -16.1579 -16.0515 -16.0038
   -14.2152 -14.1595 -13.9557 -13.9425 -13.8509 -13.7753 -13.7047 -13.6898
   -13.6551 -13.6003 -13.5761 -13.4893  -4.3376  -4.1273  -3.8795  -3.7052
    -2.4002  -2.2404  -1.9568  -1.9070  -1.7269  -1.5818  -1.5400  -1.4019
    -1.2884  -1.2158  -1.2122  -1.1249  -0.4808  -0.2732  -0.0582  -0.0238
     0.1384   0.1828   0.3527   0.3964   0.4752   0.5590   0.5820   0.6756
     0.8091   0.8372   0.9276   0.9872   1.1025   1.1400   1.2745   1.4298
     1.5032   1.5825   1.6652   1.7738   1.8863   1.9366   2.0069   2.1281
     2.1904   2.2072   2.2599   2.3606   2.5055   2.7187   2.8474   2.9208
     2.9730   3.0501   3.1581   3.2465   3.3624   3.4756   3.5344   3.5556
     3.6303   3.6603   3.7115   3.8896   3.9623   4.0969   4.3755   4.4323
    10.0163  10.5566  11.0035  11.2374  11.4808  12.2426  12.2987  12.3822
    12.5055  12.6244

     occupation numbers 
     1.0000   1.0000   1.0000   1.0000   1.0000   1.0000   1.0000   1.0000
     1.0000   1.0000   1.0000   1.0000   1.0000   1.0000   1.0000   1.0000
     1.0000   1.0000   1.0000   1.0000   1.0000   1.0000   1.0000   1.0000
     1.0000   1.0000   1.0000   1.0000   1.0000   1.0000   1.0000   1.0000
     1.0000   1.0000   1.0000   1.0000   1.0000   1.0000   1.0000   1.0000
     1.0000   1.0000   1.0000   1.0000   1.0000   1.0000   1.0000   1.0000
     1.0000   1.0000   1.0000   1.0000   1.0000   1.0000   1.0000   1.0000
     1.0000   1.0000   1.0000   1.0000   1.0000   1.0000   1.0000   1.0000
     1.0000   1.0000   1.0000   1.0000   1.0000   1.0000   1.0000   1.0000
     1.0000   1.0000   1.0000   1.0000   1.0000   1.0000   1.0000   1.0000
     1.0000   1.0000   1.0000   1.0000   1.0000   1.0000   1.0000   1.0000
     1.0000   1.0000   1.0000   1.0000   1.0000   1.0000   1.0000   1.0000
     1.0000   1.0000   1.0000   1.0000   1.0000   1.0000   1.0000   1.0000
     0.0000   0.0000   0.0000   0.0000   0.0000   0.0000   0.0000   0.0000
     0.0000   0.0000

          k = 0.0000 0.2391 0.0000 ( 37676 PWs)   bands (ev):

   -85.5868 -85.5441 -85.4156 -85.3970 -51.6565 -51.6541 -51.6458 -51.6396
   -51.5851 -51.5480 -51.4993 -51.4342 -51.3646 -51.3438 -51.2242 -51.1948
   -45.2149 -17.2834 -17.2057 -17.1789 -16.3831 -16.2049 -16.1458 -15.9838
   -14.1127 -14.0021 -13.9761 -13.9090 -13.8370 -13.7466 -13.7219 -13.6648
   -13.6375 -13.5829 -13.5288 -13.4508  -4.5786  -4.2184  -3.8943  -3.7442
    -2.4754  -2.3629  -2.0535  -1.9876  -1.7095  -1.6050  -1.5173  -1.4269
    -1.3869  -1.2571  -1.1967  -1.0604  -0.4989  -0.4333  -0.1840  -0.0544
     0.0769   0.1054   0.1949   0.2363   0.4469   0.5077   0.6695   0.7000
     0.8755   0.9412   0.9908   1.0712   1.2430   1.2740   1.4372   1.4664
     1.6276   1.6532   1.7910   1.8288   1.8820   1.9777   2.0147   2.1371
     2.2101   2.3774   2.4443   2.5093   2.6203   2.6859   2.7999   2.9289
     2.9706   3.0489   3.1487   3.3047   3.3338   3.4189   3.5002   3.5836
     3.6393   3.7029   3.7512   3.8460   4.0496   4.1078   4.3995   4.4539
     8.5816  10.3556  10.7676  11.0938  11.6118  12.3547  12.4703  12.5636
    12.6737  12.7948

     occupation numbers 
     1.0000   1.0000   1.0000   1.0000   1.0000   1.0000   1.0000   1.0000
     1.0000   1.0000   1.0000   1.0000   1.0000   1.0000   1.0000   1.0000
     1.0000   1.0000   1.0000   1.0000   1.0000   1.0000   1.0000   1.0000
     1.0000   1.0000   1.0000   1.0000   1.0000   1.0000   1.0000   1.0000
     1.0000   1.0000   1.0000   1.0000   1.0000   1.0000   1.0000   1.0000
     1.0000   1.0000   1.0000   1.0000   1.0000   1.0000   1.0000   1.0000
     1.0000   1.0000   1.0000   1.0000   1.0000   1.0000   1.0000   1.0000
     1.0000   1.0000   1.0000   1.0000   1.0000   1.0000   1.0000   1.0000
     1.0000   1.0000   1.0000   1.0000   1.0000   1.0000   1.0000   1.0000
     1.0000   1.0000   1.0000   1.0000   1.0000   1.0000   1.0000   1.0000
     1.0000   1.0000   1.0000   1.0000   1.0000   1.0000   1.0000   1.0000
     1.0000   1.0000   1.0000   1.0000   1.0000   1.0000   1.0000   1.0000
     1.0000   1.0000   1.0000   1.0000   1.0000   1.0000   1.0000   1.0000
     0.0000   0.0000   0.0000   0.0000   0.0000   0.0000   0.0000   0.0000
     0.0000   0.0000

          k = 0.0000 0.2391 0.2376 ( 37671 PWs)   bands (ev):

   -85.5868 -85.5441 -85.4156 -85.3970 -51.6565 -51.6541 -51.6458 -51.6396
   -51.5851 -51.5480 -51.4993 -51.4342 -51.3646 -51.3438 -51.2242 -51.1948
   -45.2149 -17.2832 -17.2059 -17.1806 -16.3690 -16.1926 -16.1405 -15.9832
   -14.1239 -14.0333 -13.9619 -13.9084 -13.8417 -13.7617 -13.7157 -13.6698
   -13.6438 -13.5820 -13.5327 -13.4512  -4.5551  -4.2124  -3.8916  -3.7101
    -2.4570  -2.3497  -2.0908  -1.9410  -1.7002  -1.5903  -1.5056  -1.4416
    -1.3806  -1.2679  -1.2333  -1.0206  -0.4764  -0.4299  -0.1646  -0.0446
     0.0598   0.1223   0.1989   0.2754   0.4053   0.4867   0.6325   0.6768
     0.7882   0.9475   0.9791   1.0585   1.2260   1.3318   1.4251   1.4808
     1.6345   1.7333   1.7519   1.8192   1.8742   1.9675   2.0645   2.1315
     2.2149   2.3770   2.4222   2.5048   2.5948   2.6589   2.7881   2.8677
     2.9515   3.0396   3.1501   3.3038   3.3405   3.4245   3.4842   3.5809
     3.6325   3.6917   3.7816   3.8596   4.0578   4.1083   4.3708   4.4751
     8.7128  10.4213  10.8102  11.1152  11.6850  12.3077  12.4285  12.5898
    12.6511  12.7630

     occupation numbers 
     1.0000   1.0000   1.0000   1.0000   1.0000   1.0000   1.0000   1.0000
     1.0000   1.0000   1.0000   1.0000   1.0000   1.0000   1.0000   1.0000
     1.0000   1.0000   1.0000   1.0000   1.0000   1.0000   1.0000   1.0000
     1.0000   1.0000   1.0000   1.0000   1.0000   1.0000   1.0000   1.0000
     1.0000   1.0000   1.0000   1.0000   1.0000   1.0000   1.0000   1.0000
     1.0000   1.0000   1.0000   1.0000   1.0000   1.0000   1.0000   1.0000
     1.0000   1.0000   1.0000   1.0000   1.0000   1.0000   1.0000   1.0000
     1.0000   1.0000   1.0000   1.0000   1.0000   1.0000   1.0000   1.0000
     1.0000   1.0000   1.0000   1.0000   1.0000   1.0000   1.0000   1.0000
     1.0000   1.0000   1.0000   1.0000   1.0000   1.0000   1.0000   1.0000
     1.0000   1.0000   1.0000   1.0000   1.0000   1.0000   1.0000   1.0000
     1.0000   1.0000   1.0000   1.0000   1.0000   1.0000   1.0000   1.0000
     1.0000   1.0000   1.0000   1.0000   1.0000   1.0000   1.0000   1.0000
     0.0000   0.0000   0.0000   0.0000   0.0000   0.0000   0.0000   0.0000
     0.0000   0.0000

          k = 0.0000 0.2391 0.4753 ( 37686 PWs)   bands (ev):

   -85.5868 -85.5441 -85.4156 -85.3970 -51.6565 -51.6541 -51.6458 -51.6396
   -51.5851 -51.5480 -51.4993 -51.4342 -51.3646 -51.3438 -51.2242 -51.1948
   -45.2149 -17.2817 -17.2061 -17.1850 -16.3301 -16.1717 -16.1181 -15.9843
   -14.1558 -14.0753 -13.9619 -13.9231 -13.8396 -13.7745 -13.7230 -13.6801
   -13.6498 -13.5822 -13.5440 -13.4586  -4.4808  -4.1839  -3.8858  -3.6639
    -2.4256  -2.3230  -2.0664  -1.9168  -1.6990  -1.5771  -1.4898  -1.4333
    -1.3300  -1.2819  -1.2611  -1.0173  -0.4841  -0.3847  -0.1242  -0.0300
     0.0347   0.1360   0.2085   0.2823   0.4187   0.4729   0.5746   0.6937
     0.7295   0.9158   0.9565   1.0709   1.1961   1.3182   1.4264   1.4829
     1.6025   1.7074   1.7701   1.7935   1.9164   1.9507   2.0857   2.1367
     2.1803   2.3177   2.3932   2.4513   2.5351   2.5942   2.8093   2.8178
     2.9409   3.0331   3.1555   3.2551   3.3555   3.4272   3.4810   3.5951
     3.6150   3.6861   3.7933   3.8970   4.0655   4.1002   4.3551   4.4892
     9.0736  10.5804  10.9037  11.1962  11.8009  12.1071  12.4369  12.4934
    12.6351  12.6838

     occupation numbers 
     1.0000   1.0000   1.0000   1.0000   1.0000   1.0000   1.0000   1.0000
     1.0000   1.0000   1.0000   1.0000   1.0000   1.0000   1.0000   1.0000
     1.0000   1.0000   1.0000   1.0000   1.0000   1.0000   1.0000   1.0000
     1.0000   1.0000   1.0000   1.0000   1.0000   1.0000   1.0000   1.0000
     1.0000   1.0000   1.0000   1.0000   1.0000   1.0000   1.0000   1.0000
     1.0000   1.0000   1.0000   1.0000   1.0000   1.0000   1.0000   1.0000
     1.0000   1.0000   1.0000   1.0000   1.0000   1.0000   1.0000   1.0000
     1.0000   1.0000   1.0000   1.0000   1.0000   1.0000   1.0000   1.0000
     1.0000   1.0000   1.0000   1.0000   1.0000   1.0000   1.0000   1.0000
     1.0000   1.0000   1.0000   1.0000   1.0000   1.0000   1.0000   1.0000
     1.0000   1.0000   1.0000   1.0000   1.0000   1.0000   1.0000   1.0000
     1.0000   1.0000   1.0000   1.0000   1.0000   1.0000   1.0000   1.0000
     1.0000   1.0000   1.0000   1.0000   1.0000   1.0000   1.0000   1.0000
     0.0000   0.0000   0.0000   0.0000   0.0000   0.0000   0.0000   0.0000
     0.0000   0.0000

          k = 0.0000 0.2391 0.7129 ( 37698 PWs)   bands (ev):

   -85.5868 -85.5441 -85.4156 -85.3970 -51.6565 -51.6541 -51.6458 -51.6396
   -51.5851 -51.5480 -51.4993 -51.4342 -51.3646 -51.3438 -51.2242 -51.1948
   -45.2149 -17.2796 -17.2064 -17.1897 -16.2802 -16.1515 -16.0865 -15.9925
   -14.1941 -14.1214 -13.9679 -13.9439 -13.8458 -13.7789 -13.7186 -13.6888
   -13.6526 -13.5886 -13.5561 -13.4737  -4.3844  -4.1433  -3.8774  -3.6452
    -2.4110  -2.2735  -1.9979  -1.9070  -1.7064  -1.5881  -1.5000  -1.4097
    -1.2968  -1.2562  -1.2352  -1.0684  -0.4968  -0.3472  -0.0793   0.0260
     0.0632   0.1453   0.2038   0.2850   0.4730   0.4931   0.5679   0.6858
     0.7683   0.8696   0.9223   1.0387   1.1756   1.2662   1.3073   1.4721
     1.5178   1.6094   1.7479   1.8144   1.9089   2.0024   2.0286   2.0783
     2.2144   2.2552   2.3151   2.3706   2.4811   2.6362   2.8100   2.8657
     2.9322   3.0380   3.1481   3.2373   3.3420   3.4281   3.4842   3.6027
     3.6329   3.6783   3.7786   3.9381   4.0388   4.1117   4.3692   4.4855
     9.5707  10.7540  10.9620  11.3156  11.6089  12.1378  12.3662  12.4468
    12.5044  12.7212

     occupation numbers 
     1.0000   1.0000   1.0000   1.0000   1.0000   1.0000   1.0000   1.0000
     1.0000   1.0000   1.0000   1.0000   1.0000   1.0000   1.0000   1.0000
     1.0000   1.0000   1.0000   1.0000   1.0000   1.0000   1.0000   1.0000
     1.0000   1.0000   1.0000   1.0000   1.0000   1.0000   1.0000   1.0000
     1.0000   1.0000   1.0000   1.0000   1.0000   1.0000   1.0000   1.0000
     1.0000   1.0000   1.0000   1.0000   1.0000   1.0000   1.0000   1.0000
     1.0000   1.0000   1.0000   1.0000   1.0000   1.0000   1.0000   1.0000
     1.0000   1.0000   1.0000   1.0000   1.0000   1.0000   1.0000   1.0000
     1.0000   1.0000   1.0000   1.0000   1.0000   1.0000   1.0000   1.0000
     1.0000   1.0000   1.0000   1.0000   1.0000   1.0000   1.0000   1.0000
     1.0000   1.0000   1.0000   1.0000   1.0000   1.0000   1.0000   1.0000
     1.0000   1.0000   1.0000   1.0000   1.0000   1.0000   1.0000   1.0000
     1.0000   1.0000   1.0000   1.0000   1.0000   1.0000   1.0000   1.0000
     0.0000   0.0000   0.0000   0.0000   0.0000   0.0000   0.0000   0.0000
     0.0000   0.0000

          k = 0.0000 0.2391 0.9505 ( 37713 PWs)   bands (ev):

   -85.5868 -85.5441 -85.4156 -85.3970 -51.6565 -51.6541 -51.6458 -51.6396
   -51.5851 -51.5480 -51.4993 -51.4342 -51.3646 -51.3438 -51.2242 -51.1948
   -45.2149 -17.2779 -17.2067 -17.1927 -16.2412 -16.1434 -16.0574 -16.0072
   -14.2191 -14.1548 -13.9693 -13.9552 -13.8565 -13.7887 -13.7044 -13.6861
   -13.6516 -13.5972 -13.5660 -13.4880  -4.3075  -4.1057  -3.8740  -3.6687
    -2.3906  -2.2408  -1.9477  -1.8927  -1.7199  -1.6020  -1.5183  -1.4160
    -1.2754  -1.2167  -1.1957  -1.1192  -0.5135  -0.3157  -0.0650   0.0235
     0.1151   0.1634   0.2605   0.3605   0.4890   0.5473   0.6023   0.6698
     0.8148   0.8279   0.8801   0.9807   1.0937   1.1551   1.2721   1.4370
     1.5095   1.5810   1.6625   1.7460   1.9023   1.9553   2.0208   2.0981
     2.1985   2.2359   2.2667   2.3443   2.4724   2.6974   2.8365   2.8964
     2.9152   3.0179   3.1573   3.2537   3.3223   3.4528   3.4929   3.5936
     3.6269   3.6740   3.7683   3.9557   3.9992   4.1428   4.3930   4.4705
    10.0830  10.6929  10.9997  11.3334  11.4441  12.2215  12.2959  12.3961
    12.5207  12.6651

     occupation numbers 
     1.0000   1.0000   1.0000   1.0000   1.0000   1.0000   1.0000   1.0000
     1.0000   1.0000   1.0000   1.0000   1.0000   1.0000   1.0000   1.0000
     1.0000   1.0000   1.0000   1.0000   1.0000   1.0000   1.0000   1.0000
     1.0000   1.0000   1.0000   1.0000   1.0000   1.0000   1.0000   1.0000
     1.0000   1.0000   1.0000   1.0000   1.0000   1.0000   1.0000   1.0000
     1.0000   1.0000   1.0000   1.0000   1.0000   1.0000   1.0000   1.0000
     1.0000   1.0000   1.0000   1.0000   1.0000   1.0000   1.0000   1.0000
     1.0000   1.0000   1.0000   1.0000   1.0000   1.0000   1.0000   1.0000
     1.0000   1.0000   1.0000   1.0000   1.0000   1.0000   1.0000   1.0000
     1.0000   1.0000   1.0000   1.0000   1.0000   1.0000   1.0000   1.0000
     1.0000   1.0000   1.0000   1.0000   1.0000   1.0000   1.0000   1.0000
     1.0000   1.0000   1.0000   1.0000   1.0000   1.0000   1.0000   1.0000
     1.0000   1.0000   1.0000   1.0000   1.0000   1.0000   1.0000   1.0000
     0.0000   0.0000   0.0000   0.0000   0.0000   0.0000   0.0000   0.0000
     0.0000   0.0000

          k = 0.0000 0.4781 0.0000 ( 37720 PWs)   bands (ev):

   -85.5868 -85.5441 -85.4156 -85.3970 -51.6565 -51.6541 -51.6458 -51.6396
   -51.5851 -51.5480 -51.4993 -51.4342 -51.3646 -51.3438 -51.2242 -51.1948
   -45.2149 -17.2894 -17.2094 -17.1787 -16.3370 -16.1956 -16.1350 -16.0194
   -14.1369 -14.0133 -13.9628 -13.9234 -13.8675 -13.7604 -13.7189 -13.6485
   -13.6392 -13.5741 -13.5231 -13.4452  -4.4936  -4.1382  -3.9257  -3.7505
    -2.4186  -2.2717  -2.0393  -1.9520  -1.7352  -1.6324  -1.4984  -1.4108
    -1.3679  -1.2651  -1.1898  -1.0363  -0.5558  -0.4566  -0.2333  -0.1721
     0.0283   0.0861   0.1239   0.2523   0.3842   0.5070   0.7121   0.7635
     0.8881   0.9146   0.9877   1.0557   1.2636   1.3153   1.3717   1.4499
     1.6002   1.6379   1.7126   1.7749   1.8382   1.9690   2.0188   2.1894
     2.2429   2.3368   2.3883   2.4791   2.6023   2.6157   2.8110   2.9114
     2.9566   3.0215   3.1547   3.2689   3.3348   3.4144   3.4832   3.5639
     3.6362   3.7056   3.7394   3.8351   4.1929   4.2316   4.4581   4.5251
     9.0004  10.5326  10.7996  11.0373  11.5538  12.1699  12.3645  12.5035
    12.6718  12.8014

     occupation numbers 
     1.0000   1.0000   1.0000   1.0000   1.0000   1.0000   1.0000   1.0000
     1.0000   1.0000   1.0000   1.0000   1.0000   1.0000   1.0000   1.0000
     1.0000   1.0000   1.0000   1.0000   1.0000   1.0000   1.0000   1.0000
     1.0000   1.0000   1.0000   1.0000   1.0000   1.0000   1.0000   1.0000
     1.0000   1.0000   1.0000   1.0000   1.0000   1.0000   1.0000   1.0000
     1.0000   1.0000   1.0000   1.0000   1.0000   1.0000   1.0000   1.0000
     1.0000   1.0000   1.0000   1.0000   1.0000   1.0000   1.0000   1.0000
     1.0000   1.0000   1.0000   1.0000   1.0000   1.0000   1.0000   1.0000
     1.0000   1.0000   1.0000   1.0000   1.0000   1.0000   1.0000   1.0000
     1.0000   1.0000   1.0000   1.0000   1.0000   1.0000   1.0000   1.0000
     1.0000   1.0000   1.0000   1.0000   1.0000   1.0000   1.0000   1.0000
     1.0000   1.0000   1.0000   1.0000   1.0000   1.0000   1.0000   1.0000
     1.0000   1.0000   1.0000   1.0000   1.0000   1.0000   1.0000   1.0000
     0.0000   0.0000   0.0000   0.0000   0.0000   0.0000   0.0000   0.0000
     0.0000   0.0000

          k = 0.0000 0.4781 0.2376 ( 37687 PWs)   bands (ev):

   -85.5868 -85.5441 -85.4156 -85.3970 -51.6565 -51.6541 -51.6458 -51.6396
   -51.5851 -51.5480 -51.4993 -51.4342 -51.3646 -51.3438 -51.2242 -51.1948
   -45.2149 -17.2890 -17.2095 -17.1804 -16.3250 -16.1798 -16.1322 -16.0173
   -14.1448 -14.0404 -13.9547 -13.9124 -13.8891 -13.7681 -13.7185 -13.6549
   -13.6419 -13.5738 -13.5252 -13.4464  -4.4744  -4.1358  -3.9109  -3.7125
    -2.4005  -2.2521  -2.0878  -1.9083  -1.7288  -1.6285  -1.4784  -1.4112
    -1.3629  -1.2797  -1.2303  -0.9950  -0.5435  -0.4636  -0.2155  -0.1440
     0.0517   0.0989   0.1541   0.2562   0.3625   0.4663   0.6658   0.7080
     0.7787   0.8983   0.9724   1.0377   1.2366   1.3483   1.3990   1.4774
     1.6249   1.6834   1.7620   1.7928   1.8686   1.9584   2.0405   2.1556
[...]
     atom    6 type  4   force =    -0.02060853    0.03700838    0.02821982
     atom    7 type  4   force =    -0.01220652    0.01144147   -0.08486063
     atom    8 type  4   force =     0.01916172   -0.05561533   -0.03402945
     atom    9 type  4   force =     0.01764246   -0.02125447    0.08622410
     atom   10 type  3   force =    -0.56957937   -0.26659000   -1.04405451
     atom   11 type  3   force =    -0.02226136    0.22793654   -1.47897582
     atom   12 type  3   force =     0.61219314    0.20739477    1.03095336
     atom   13 type  3   force =     0.03995485   -0.23094596    1.48042495
     atom   14 type  3   force =     1.40327184   -0.22962295   -0.59785373
     atom   15 type  3   force =    -1.31421605    0.51467543   -0.12371708
     atom   16 type  3   force =    -1.38007881    0.23133867    0.65058629
     atom   17 type  3   force =     1.28577439   -0.41348635    0.04790334
     atom   18 type  3   force =    -0.11349781   -1.34333738    0.84314654
     atom   19 type  3   force =     0.63480313    0.72119060    0.90687264
     atom   20 type  3   force =    -0.03314412   -1.65547635   -0.94901241
     atom   21 type  3   force =    -0.11554012    1.00385336   -0.57603107
     atom   22 type  3   force =     0.13543006    1.37249852   -0.76938002
     atom   23 type  3   force =    -0.64601372   -0.69636417   -0.93040809
     atom   24 type  3   force =    -0.00859277    1.56317971    0.96621208
     atom   25 type  3   force =     0.07987277   -1.07352723    0.57148001
     The ionic contribution  to forces
     atom    1 type  2   force =     1.35129100   -3.22330116   -1.84765203
     atom    2 type  1   force =     8.74750952    5.45035357   -2.06875253
     atom    3 type  1   force =     5.07261498   -9.15451523   -1.74352774
     atom    4 type  1   force =   -11.27366831   -4.47853803    1.72059040
     atom    5 type  1   force =    -3.85958113   10.30774923    2.84174296
     atom    6 type  4   force =    -1.70057044    2.45156510   -1.41416482
     atom    7 type  4   force =     3.66862754   -0.96670147    1.00483937
     atom    8 type  4   force =     1.75195437   -2.19459096    1.83907531
     atom    9 type  4   force =    -3.65656712    0.84810313   -0.89034086
     atom   10 type  3   force =    -1.06644498    7.23562127    0.29334480
     atom   11 type  3   force =     7.46614481   -3.81704844    2.27877371
     atom   12 type  3   force =    -0.85920663   -5.58209024    0.78970524
     atom   13 type  3   force =    -7.42278573    3.92384840   -2.34967512
     atom   14 type  3   force =     0.48697995    1.32971829    7.03329103
     atom   15 type  3   force =     0.36615445   -5.19317057    5.00833155
     atom   16 type  3   force =    -0.79915482   -1.41415997   -7.47632956
     atom   17 type  3   force =     0.43289490    3.76492470   -2.61028940
     atom   18 type  3   force =    -4.66370734    7.42898191   -0.15404996
     atom   19 type  3   force =     2.59407147   -1.78283214   -3.42075246
     atom   20 type  3   force =     4.62911894    6.45643047    8.30541819
     atom   21 type  3   force =    -8.92781543   -0.37466745   -0.09170660
     atom   22 type  3   force =     4.62699267   -8.47737813   -2.42271790
     atom   23 type  3   force =    -2.77624522    0.69259098    3.70141542
     atom   24 type  3   force =    -3.39662095   -4.46363459   -8.69313331
     atom   25 type  3   force =     9.20801351    1.23274133    0.36656431
     The local contribution  to forces
     atom    1 type  2   force =    -1.40839571    3.23821401    1.78548210
     atom    2 type  1   force =    -8.81947727   -5.34649673    2.23182584
     atom    3 type  1   force =    -5.00687040    9.31657579    1.65542017
     atom    4 type  1   force =    11.31540597    4.36587050   -1.89773289
     atom    5 type  1   force =     3.84738941  -10.44072146   -2.68998277
     atom    6 type  4   force =     1.70917239   -2.49062311    1.38785292
     atom    7 type  4   force =    -3.64335790    0.95374601   -0.94159840
     atom    8 type  4   force =    -1.76058289    2.25065072   -1.80320776
     atom    9 type  4   force =     3.62582613   -0.82570837    0.82843326
     atom   10 type  3   force =     1.62973238   -6.98364871    0.73705872
     atom   11 type  3   force =    -7.44947694    3.59401726   -0.81184421
     atom   12 type  3   force =     0.25698762    5.38158949   -1.80310522
     atom   13 type  3   force =     7.39016340   -3.69900221    0.88284819
     atom   14 type  3   force =    -1.84393670   -1.10672877   -6.44902819
     atom   15 type  3   force =     0.90523415    4.68545805   -4.88304619
     atom   16 type  3   force =     2.13440062    1.18917276    6.84155759
     atom   17 type  3   force =    -1.67650467   -3.35799634    2.56412813
     atom   18 type  3   force =     4.77253556   -6.11600816   -0.67170002
     atom   19 type  3   force =    -3.21346801    1.08184283    2.53410453
     atom   20 type  3   force =    -4.59319687   -4.85100465   -7.37564977
     atom   21 type  3   force =     9.04307950   -0.60239783    0.66029819
     atom   22 type  3   force =    -4.75836647    7.13380972    3.18194086
     atom   23 type  3   force =     3.40637464   -0.01570596   -2.78995940
     atom   24 type  3   force =     3.40179254    2.94584490    7.75032955
     atom   25 type  3   force =    -9.28718386   -0.18830292   -0.92788633
     The core correction contribution to forces
     atom    1 type  2   force =     0.00000000    0.00000000    0.00000000
     atom    2 type  1   force =    -0.00252909    0.00056040    0.00055537
     atom    3 type  1   force =     0.00133636   -0.00065600    0.00062351
     atom    4 type  1   force =     0.00234995   -0.00089074   -0.00069900
     atom    5 type  1   force =    -0.00082605    0.00080795   -0.00024974
     atom    6 type  4   force =     0.00280001   -0.00176848   -0.00109391
     atom    7 type  4   force =     0.00023982   -0.00053285    0.00600909
     atom    8 type  4   force =    -0.00280112    0.00304394    0.00151947
     atom    9 type  4   force =    -0.00065201    0.00143414   -0.00621007
     atom   10 type  3   force =     0.00478845    0.00241595    0.00911223
     atom   11 type  3   force =     0.00101241   -0.00236074    0.01287649
     atom   12 type  3   force =    -0.00514506   -0.00186634   -0.00907937
     atom   13 type  3   force =    -0.00118483    0.00239597   -0.01295623
     atom   14 type  3   force =    -0.01249430    0.00218756    0.00602470
     atom   15 type  3   force =     0.01155139   -0.00495008    0.00153835
     atom   16 type  3   force =     0.01227986   -0.00218544   -0.00650669
     atom   17 type  3   force =    -0.01127225    0.00399920   -0.00096805
     atom   18 type  3   force =     0.00044869    0.01250567   -0.00740692
     atom   19 type  3   force =    -0.00571738   -0.00619528   -0.00838644
     atom   20 type  3   force =     0.00049232    0.01505701    0.00908282
     atom   21 type  3   force =     0.00092370   -0.00901739    0.00534746
     atom   22 type  3   force =    -0.00066031   -0.01279391    0.00665219
     atom   23 type  3   force =     0.00584339    0.00595705    0.00862031
     atom   24 type  3   force =    -0.00007062   -0.01415289   -0.00927070
     atom   25 type  3   force =    -0.00056408    0.00963543   -0.00531382
     The Hubbard contrib.    to forces
     atom    1 type  2   force =     0.00000000    0.00000000    0.00000000
     atom    2 type  1   force =     0.00000000    0.00000000    0.00000000
     atom    3 type  1   force =     0.00000000    0.00000000    0.00000000
     atom    4 type  1   force =     0.00000000    0.00000000    0.00000000
     atom    5 type  1   force =     0.00000000    0.00000000    0.00000000
     atom    6 type  4   force =     0.00000000    0.00000000    0.00000000
     atom    7 type  4   force =     0.00000000    0.00000000    0.00000000
     atom    8 type  4   force =     0.00000000    0.00000000    0.00000000
     atom    9 type  4   force =     0.00000000    0.00000000    0.00000000
     atom   10 type  3   force =     0.00000000    0.00000000    0.00000000
     atom   11 type  3   force =     0.00000000    0.00000000    0.00000000
     atom   12 type  3   force =     0.00000000    0.00000000    0.00000000
     atom   13 type  3   force =     0.00000000    0.00000000    0.00000000
     atom   14 type  3   force =     0.00000000    0.00000000    0.00000000
     atom   15 type  3   force =     0.00000000    0.00000000    0.00000000
     atom   16 type  3   force =     0.00000000    0.00000000    0.00000000
     atom   17 type  3   force =     0.00000000    0.00000000    0.00000000
     atom   18 type  3   force =     0.00000000    0.00000000    0.00000000
     atom   19 type  3   force =     0.00000000    0.00000000    0.00000000
     atom   20 type  3   force =     0.00000000    0.00000000    0.00000000
     atom   21 type  3   force =     0.00000000    0.00000000    0.00000000
     atom   22 type  3   force =     0.00000000    0.00000000    0.00000000
     atom   23 type  3   force =     0.00000000    0.00000000    0.00000000
     atom   24 type  3   force =     0.00000000    0.00000000    0.00000000
     atom   25 type  3   force =     0.00000000    0.00000000    0.00000000
     The SCF correction term to forces
     atom    1 type  2   force =    -0.00000727   -0.00000106   -0.00000109
     atom    2 type  1   force =     0.00000104    0.00000137   -0.00000076
     atom    3 type  1   force =    -0.00000296    0.00000047    0.00000030
     atom    4 type  1   force =     0.00000627    0.00000306    0.00000320
     atom    5 type  1   force =     0.00000265   -0.00000261   -0.00000192
     atom    6 type  4   force =    -0.00000341    0.00000130   -0.00000097
     atom    7 type  4   force =     0.00000236   -0.00000068    0.00000076
     atom    8 type  4   force =    -0.00000408    0.00000074   -0.00000031
     atom    9 type  4   force =     0.00000286   -0.00000005    0.00000020
     atom   10 type  3   force =    -0.00000080    0.00000458    0.00000226
     atom   11 type  3   force =     0.00000483   -0.00000174   -0.00000239
     atom   12 type  3   force =    -0.00000436    0.00000045   -0.00000320
     atom   13 type  3   force =     0.00000411   -0.00000058   -0.00000209
     atom   14 type  3   force =    -0.00000082    0.00000039   -0.00000094
     atom   15 type  3   force =    -0.00000734   -0.00000022    0.00000158
     atom   16 type  3   force =     0.00000840    0.00000006    0.00000208
     atom   17 type  3   force =    -0.00000545   -0.00000058    0.00000048
     atom   18 type  3   force =     0.00000032   -0.00000050   -0.00000212
     atom   19 type  3   force =     0.00000147   -0.00000681    0.00000202
     atom   20 type  3   force =    -0.00000357    0.00000054   -0.00000087
     atom   21 type  3   force =     0.00000530   -0.00000427    0.00000087
     atom   22 type  3   force =    -0.00000557    0.00000125    0.00000280
     atom   23 type  3   force =     0.00000347    0.00000429    0.00000068
     atom   24 type  3   force =    -0.00000538    0.00000150   -0.00000287
     atom   25 type  3   force =     0.00000264    0.00000552    0.00000271

     Total force =     0.112157     Total SCF correction =     0.000027


     Computing stress (Cartesian axis) and pressure


     negative rho (up, down):  0.000E+00 9.238E-04
          total   stress  (Ry/bohr**3)                   (kbar)     P=      -37.58
  -0.00063640   0.00012534  -0.00003629          -93.62       18.44       -5.34
   0.00012534  -0.00013209  -0.00004436           18.44      -19.43       -6.53
  -0.00003629  -0.00004436   0.00000207           -5.34       -6.53        0.30

     kinetic stress (kbar)  25492.43     89.44    -46.99
                               89.44  25632.42     -1.96
                              -46.99     -1.96  25696.60

     local   stress (kbar)  -8795.53   3802.35  -7851.95
                             3802.35 -13499.72   -610.54
                            -7851.95   -610.54  -5718.59

     nonloc. stress (kbar)  -6509.80      6.57     -7.69
                                6.57  -6478.70    -10.10
                               -7.69    -10.10  -6483.24

     hartree stress (kbar)  14278.02  -1428.39   3315.27
                            -1428.39  16803.48    312.74
                             3315.27    312.74  13455.63

     exc-cor stress (kbar)  -2703.88     -3.38      3.32
                               -3.38  -2707.85     -0.69
                                3.32     -0.69  -2708.07

     corecor stress (kbar)  -3012.49      0.28     -0.30
                                0.28  -3013.20      1.21
                               -0.30      1.21  -3013.81

     ewald   stress (kbar) -18842.36  -2448.42   4583.01
                            -2448.42 -16755.86    302.82
                             4583.01    302.82 -21228.22

     hubbard stress (kbar)      0.00      0.00      0.00
                                0.00      0.00      0.00
                                0.00      0.00      0.00

     DFT-D   stress (kbar)      0.00      0.00      0.00
                                0.00      0.00      0.00
                                0.00      0.00      0.00

     XDM     stress (kbar)      0.00      0.00      0.00
                                0.00      0.00      0.00
                                0.00      0.00      0.00

     dft-nl  stress (kbar)      0.00      0.00      0.00
                                0.00      0.00      0.00
                                0.00      0.00      0.00

     TS-vdW  stress (kbar)      0.00      0.00      0.00
                                0.00      0.00      0.00
                                0.00      0.00      0.00



     init_run     :   1129.30s CPU   1350.52s WALL (       1 calls)
     electrons    :  87177.00s CPU 100247.62s WALL (       1 calls)
     forces       :    143.77s CPU    169.82s WALL (       1 calls)
     stress       :    709.25s CPU    802.37s WALL (       1 calls)

     Called by init_run:
     wfcinit      :   1114.24s CPU   1320.92s WALL (       1 calls)
     wfcinit:atom :      0.67s CPU      0.85s WALL (     316 calls)
     wfcinit:wfcr :   1108.84s CPU   1314.04s WALL (     316 calls)
     potinit      :      5.93s CPU     11.34s WALL (       1 calls)
     hinit0       :      5.29s CPU     10.84s WALL (       1 calls)

     Called by electrons:
     c_bands      :  72287.68s CPU  83139.44s WALL (      33 calls)
     sum_band     :  14633.08s CPU  16811.69s WALL (      33 calls)
     v_of_rho     :     85.36s CPU    101.08s WALL (      34 calls)
     v_h          :      8.08s CPU      9.14s WALL (      34 calls)
     v_xc         :     81.79s CPU     97.37s WALL (      36 calls)
     newd         :     72.38s CPU     84.57s WALL (      34 calls)
     PAW_pot      :     19.69s CPU     22.67s WALL (      34 calls)
     mix_rho      :     66.76s CPU     78.36s WALL (      33 calls)

     Called by c_bands:
     init_us_2    :     64.48s CPU     70.75s WALL (   21804 calls)
     cegterg      :  71484.29s CPU  82175.13s WALL (   10428 calls)

     Called by sum_band:
     sum_band:wei :      0.58s CPU      0.63s WALL (      33 calls)
     sum_band:loo :  14505.43s CPU  16665.17s WALL (      33 calls)
     sum_band:buf :     15.51s CPU     16.18s WALL (   10428 calls)
     sum_band:ini :     25.13s CPU     26.42s WALL (   10428 calls)
     sum_band:cal :   1025.71s CPU   1185.45s WALL (   10428 calls)
     sum_band:bec :      2.50s CPU      2.52s WALL (   10428 calls)
     addusdens    :     79.72s CPU     92.52s WALL (      33 calls)
     addusd:skk   :      0.64s CPU      0.70s WALL (      99 calls)
     addusd:dgemm :      6.33s CPU      9.87s WALL (     198 calls)
     addusd:qvan2 :     71.99s CPU     80.86s WALL (     198 calls)

     Called by *egterg:
     cdiaghg      :   1181.20s CPU   1383.79s WALL (   36362 calls)
     cegterg:over :   3928.12s CPU   4508.81s WALL (   25934 calls)
     cegterg:upda :    169.86s CPU    187.15s WALL (   25934 calls)
     cegterg:last :    334.66s CPU    377.62s WALL (   17037 calls)
     h_psi        :  63266.76s CPU  72759.25s WALL (   36678 calls)
     s_psi        :    363.37s CPU    427.65s WALL (   36678 calls)
     g_psi        :     19.12s CPU     24.25s WALL (   25934 calls)

     Called by h_psi:
     h_psi:calbec :   3089.20s CPU   3586.35s WALL (   36678 calls)
     vloc_psi     :  59748.82s CPU  68673.66s WALL (   36678 calls)
     add_vuspsi   :    384.65s CPU    450.15s WALL (   36678 calls)

     General routines
     calbec       :   4391.92s CPU   5088.74s WALL (   48686 calls)
     fft          :    159.53s CPU    186.80s WALL (     888 calls)
     ffts         :      2.13s CPU      2.44s WALL (     134 calls)
     fftw         :  72431.75s CPU  83346.60s WALL ( 6493216 calls)
     interpolate  :     10.40s CPU     12.41s WALL (      68 calls)

     Parallel routines
     fft_scatt_xy :    353.05s CPU    358.04s WALL ( 6494238 calls)
     fft_scatt_yz :  71180.31s CPU  82105.68s WALL ( 6494238 calls)

     PAW routines
     PAW_pot      :     19.69s CPU     22.67s WALL (      34 calls)

     PWSCF        :   1d 0h46m CPU   1d 4h30m WALL


   This run was terminated on:   6:37:15  21Jan2023            

=------------------------------------------------------------------------------=
   JOB DONE.
=------------------------------------------------------------------------------=
Note: The following floating-point exceptions are signalling: IEEE_DENORMAL
Note: The following floating-point exceptions are signalling: IEEE_DENORMAL
Note: The following floating-point exceptions are signalling: IEEE_DENORMAL
Note: The following floating-point exceptions are signalling: IEEE_DENORMAL
Note: The following floating-point exceptions are signalling: IEEE_DENORMAL
Note: The following floating-point exceptions are signalling: IEEE_DENORMAL
Note: The following floating-point exceptions are signalling: IEEE_DENORMAL
Note: The following floating-point exceptions are signalling: IEEE_DENORMAL
Note: The following floating-point exceptions are signalling: IEEE_INVALID_FLAG IEEE_DENORMAL
Note: The following floating-point exceptions are signalling: IEEE_DENORMAL
Note: The following floating-point exceptions are signalling: IEEE_DENORMAL
Note: The following floating-point exceptions are signalling: IEEE_INVALID_FLAG IEEE_DENORMAL
Note: The following floating-point exceptions are signalling: IEEE_DENORMAL
Note: The following floating-point exceptions are signalling: IEEE_DENORMAL
Note: The following floating-point exceptions are signalling: IEEE_DENORMAL
Note: The following floating-point exceptions are signalling: IEEE_DENORMAL
Note: The following floating-point exceptions are signalling: IEEE_DENORMAL
Note: The following floating-point exceptions are signalling: IEEE_DENORMAL
Note: The following floating-point exceptions are signalling: IEEE_UNDERFLOW_FLAG IEEE_DENORMAL
Note: The following floating-point exceptions are signalling: IEEE_DENORMAL
Note: The following floating-point exceptions are signalling: IEEE_DENORMAL
Note: The following floating-point exceptions are signalling: IEEE_INVALID_FLAG IEEE_DENORMAL
Note: The following floating-point exceptions are signalling: IEEE_DENORMAL
Note: The following floating-point exceptions are signalling: IEEE_DENORMAL
Note: The following floating-point exceptions are signalling: IEEE_DENORMAL
Note: The following floating-point exceptions are signalling: IEEE_DENORMAL
Note: The following floating-point exceptions are signalling: IEEE_DENORMAL
Note: The following floating-point exceptions are signalling: IEEE_DENORMAL
Note: The following floating-point exceptions are signalling: IEEE_DENORMAL
Note: The following floating-point exceptions are signalling: IEEE_DENORMAL
Note: The following floating-point exceptions are signalling: IEEE_DENORMAL
