
     Program PWSCF v.6.7MaX starts on 17Jan2023 at 16:36:42 

     This program is part of the open-source Quantum ESPRESSO suite
     for quantum simulation of materials; please cite
         "P. Giannozzi et al., J. Phys.:Condens. Matter 21 395502 (2009);
         "P. Giannozzi et al., J. Phys.:Condens. Matter 29 465901 (2017);
          URL http://www.quantum-espresso.org", 
     in publications or presentations arising from this work. More details at
     http://www.quantum-espresso.org/quote

     Parallel version (MPI), running on    32 processors

     MPI processes distributed on     2 nodes
     R & G space division:  proc/nbgrp/npool/nimage =      32
     Reading input from scale_1da-03.in

     Current dimensions of program PWSCF are:
     Max number of different atomic species (ntypx) = 10
     Max number of k-points (npk) =  40000
     Max angular momentum in pseudopotentials (lmaxx) =  3
     Message from routine read_pp_mesh:
     mesh size missing, using the one in header
     file Fe.pbe-spn-kjpaw_psl.0.2.1.UPF: wavefunction(s)  3D renormalized
     file O.pbe-n-kjpaw_psl.0.1.UPF: wavefunction(s)  2P renormalized

     Subspace diagonalization in iterative solution of the eigenvalue problem:
     a serial algorithm will be used


     Parallelization info
     --------------------
     sticks:   dense  smooth     PW     G-vecs:    dense   smooth      PW
     Min         631     233     63                41143     9275    1304
     Max         632     234     65                41145     9278    1305
     Sum       20195    7485   2029              1316619   296831   41755



     bravais-lattice index     =            0
     lattice parameter (alat)  =      19.9928  a.u.
     unit-cell volume          =    2196.3637 (a.u.)^3
     number of atoms/cell      =           25
     number of atomic types    =            4
     number of electrons       =       189.00
     number of Kohn-Sham states=          114
     kinetic-energy cutoff     =     100.0000  Ry
     charge density cutoff     =    1080.0000  Ry
     scf convergence threshold =      2.0E-10
     mixing beta               =       0.4000
     number of iterations used =            8  plain     mixing
     Exchange-correlation= PBE
                           (   1   4   3   4   0   0   0)

     celldm(1)=  19.992808  celldm(2)=   0.000000  celldm(3)=   0.000000
     celldm(4)=   0.000000  celldm(5)=   0.000000  celldm(6)=   0.000000

     crystal axes: (cart. coord. in units of alat)
               a(1) = (   1.000000   0.000000   0.000000 )  
               a(2) = (   0.000000   0.587793   0.000000 )  
               a(3) = (   0.000000   0.000000   0.467582 )  

     reciprocal axes: (cart. coord. in units 2 pi/alat)
               b(1) = (  1.000000  0.000000  0.000000 )  
               b(2) = (  0.000000  1.701278  0.000000 )  
               b(3) = (  0.000000  0.000000  2.138660 )  


     PseudoPot. # 1 for Fe read from file:
     /opt/QEpot/SSSP_precision_pseudos/Fe.pbe-spn-kjpaw_psl.0.2.1.UPF
     MD5 check sum: e86618425769142926afa95317d90200
     Pseudo is Projector augmented-wave + core cor, Zval = 16.0
     Generated using "atomic" code by A. Dal Corso  v.5.0.99 svn rev. 10869
     Shape of augmentation charge: PSQ
     Using radial grid of 1191 points,  6 beta functions with: 
                l(1) =   0
                l(2) =   0
                l(3) =   1
                l(4) =   1
                l(5) =   2
                l(6) =   2
     Q(r) pseudized with 0 coefficients 


     PseudoPot. # 2 for Na read from file:
     /opt/QEpot/SSSP_precision_pseudos/Na_ONCV_PBE-1.0.oncvpsp.upf
     MD5 check sum: 24a298df0a6742ae313db96548fdb2a4
     Pseudo is Norm-conserving, Zval =  9.0
     Generated using ONCVPSP code by D. R. Hamann
     Using radial grid of 1992 points,  4 beta functions with: 
                l(1) =   0
                l(2) =   0
                l(3) =   1
                l(4) =   1

     PseudoPot. # 3 for O  read from file:
     /opt/QEpot/SSSP_precision_pseudos/O.pbe-n-kjpaw_psl.0.1.UPF
     MD5 check sum: 0234752ac141de4415c5fc33072bef88
     Pseudo is Projector augmented-wave + core cor, Zval =  6.0
     Generated using "atomic" code by A. Dal Corso  v.5.0.99 svn rev. 10869
     Shape of augmentation charge: BESSEL
     Using radial grid of 1095 points,  4 beta functions with: 
                l(1) =   0
                l(2) =   0
                l(3) =   1
                l(4) =   1
     Q(r) pseudized with 0 coefficients 


     PseudoPot. # 4 for P  read from file:
     /opt/QEpot/SSSP_precision_pseudos/P.pbe-n-rrkjus_psl.1.0.0.UPF
     MD5 check sum: 8b930f418f0a4573dca56cd030ffe088
     Pseudo is Ultrasoft + core correction, Zval =  5.0
     Generated using "atomic" code by A. Dal Corso  v.5.1
     Using radial grid of 1147 points,  6 beta functions with: 
                l(1) =   0
                l(2) =   0
                l(3) =   1
                l(4) =   1
                l(5) =   2
                l(6) =   2
     Q(r) pseudized with 0 coefficients 


     atomic species   valence    mass     pseudopotential
        Fe            16.00    55.84500     Fe( 1.00)
        Na             9.00    22.98977     Na( 1.00)
        O              6.00    15.99940     O ( 1.00)
        P              5.00    30.97376     P ( 1.00)

     Starting magnetic structure 
     atomic species   magnetization
        Fe           0.312
        Na           0.000
        O            0.000
        P            0.000

     No symmetry found


                                    s                        frac. trans.

      isym =  1     identity                                     

 cryst.   s( 1) = (     1          0          0      )
                  (     0          1          0      )
                  (     0          0          1      )

 cart.    s( 1) = (  1.0000000  0.0000000  0.0000000 )
                  (  0.0000000  1.0000000  0.0000000 )
                  (  0.0000000  0.0000000  1.0000000 )


   Cartesian axes

     site n.     atom                  positions (alat units)
         1           Na  tau(   1) = (   0.9937840   0.0379626   0.1528560  )
         2           Fe  tau(   2) = (   0.2986740   0.4542961   0.4013999  )
         3           Fe  tau(   3) = (   0.2261460   0.1973434   0.2419688  )
         4           Fe  tau(   4) = (   0.6975520   0.1337847   0.0709150  )
         5           Fe  tau(   5) = (   0.7773350   0.3883086   0.2347816  )
         6           P   tau(   6) = (   0.0931440   0.3856524   0.1321215  )
         7           P   tau(   7) = (   0.3969020   0.1475397   0.4444656  )
         8           P   tau(   8) = (   0.9073800   0.1951597   0.3445900  )
         9           P   tau(   9) = (   0.6037890   0.4399598   0.0281620  )
        10           O   tau(  10) = (   0.1796790   0.3965089   0.2548165  )
        11           O   tau(  11) = (   0.3567140   0.1473857   0.1165300  )
        12           O   tau(  12) = (   0.8229580   0.1818885   0.2199344  )
        13           O   tau(  13) = (   0.6444220   0.4394819   0.3559920  )
        14           O   tau(  14) = (   0.4575890   0.4558097   0.0415204  )
        15           O   tau(  15) = (   0.0485940   0.1567422   0.3194996  )
        16           O   tau(  16) = (   0.5429300   0.1316140   0.4292150  )
        17           O   tau(  17) = (   0.9517230   0.4231795   0.1560238  )
        18           O   tau(  18) = (   0.1489580   0.4843012   0.0375090  )
        19           O   tau(  19) = (   0.3206220   0.0477559   0.3614772  )
        20           O   tau(  20) = (   0.8840090   0.3336950   0.3834719  )
        21           O   tau(  21) = (   0.6538890   0.3173355   0.1009955  )
        22           O   tau(  22) = (   0.8517680   0.0998144   0.4422446  )
        23           O   tau(  23) = (   0.6791950   0.5403767   0.1109073  )
        24           O   tau(  24) = (   0.1140230   0.2470719   0.0908274  )
        25           O   tau(  25) = (   0.3482900   0.2705866   0.3725917  )

   Crystallographic axes

     site n.     atom                  positions (cryst. coord.)
         1           Na  tau(   1) = (  0.9937840  0.0645850  0.3269070  )
         2           Fe  tau(   2) = (  0.2986740  0.7728840  0.8584580  )
         3           Fe  tau(   3) = (  0.2261460  0.3357360  0.5174890  )
         4           Fe  tau(   4) = (  0.6975520  0.2276050  0.1516630  )
         5           Fe  tau(   5) = (  0.7773350  0.6606210  0.5021180  )
         6           P   tau(   6) = (  0.0931440  0.6561020  0.2825630  )
         7           P   tau(   7) = (  0.3969020  0.2510060  0.9505610  )
         8           P   tau(   8) = (  0.9073800  0.3320210  0.7369610  )
         9           P   tau(   9) = (  0.6037890  0.7484940  0.0602290  )
        10           O   tau(  10) = (  0.1796790  0.6745720  0.5449660  )
        11           O   tau(  11) = (  0.3567140  0.2507440  0.2492180  )
        12           O   tau(  12) = (  0.8229580  0.3094430  0.4703650  )
        13           O   tau(  13) = (  0.6444220  0.7476810  0.7613460  )
        14           O   tau(  14) = (  0.4575890  0.7754590  0.0887980  )
        15           O   tau(  15) = (  0.0485940  0.2666620  0.6833010  )
        16           O   tau(  16) = (  0.5429300  0.2239120  0.9179450  )
        17           O   tau(  17) = (  0.9517230  0.7199460  0.3336820  )
        18           O   tau(  18) = (  0.1489580  0.8239310  0.0802190  )
        19           O   tau(  19) = (  0.3206220  0.0812460  0.7730770  )
        20           O   tau(  20) = (  0.8840090  0.5677080  0.8201160  )
        21           O   tau(  21) = (  0.6538890  0.5398760  0.2159950  )
        22           O   tau(  22) = (  0.8517680  0.1698120  0.9458110  )
        23           O   tau(  23) = (  0.6791950  0.9193310  0.2371930  )
        24           O   tau(  24) = (  0.1140230  0.4203380  0.1942490  )
        25           O   tau(  25) = (  0.3482900  0.4603430  0.7968470  )

     number of k points=   158  Marzari-Vanderbilt smearing, width (Ry)=  0.0073
                       cart. coord. in units 2pi/alat
        k(    1) = (   0.0000000   0.0000000   0.0000000), wk =   0.0031746
        k(    2) = (   0.0000000   0.0000000   0.2376289), wk =   0.0063492
        k(    3) = (   0.0000000   0.0000000   0.4752578), wk =   0.0063492
        k(    4) = (   0.0000000   0.0000000   0.7128867), wk =   0.0063492
        k(    5) = (   0.0000000   0.0000000   0.9505157), wk =   0.0063492
        k(    6) = (   0.0000000   0.2430397   0.0000000), wk =   0.0063492
        k(    7) = (   0.0000000   0.2430397   0.2376289), wk =   0.0063492
        k(    8) = (   0.0000000   0.2430397   0.4752578), wk =   0.0063492
        k(    9) = (   0.0000000   0.2430397   0.7128867), wk =   0.0063492
        k(   10) = (   0.0000000   0.2430397   0.9505157), wk =   0.0063492
        k(   11) = (   0.0000000   0.4860795   0.0000000), wk =   0.0063492
        k(   12) = (   0.0000000   0.4860795   0.2376289), wk =   0.0063492
        k(   13) = (   0.0000000   0.4860795   0.4752578), wk =   0.0063492
        k(   14) = (   0.0000000   0.4860795   0.7128867), wk =   0.0063492
        k(   15) = (   0.0000000   0.4860795   0.9505157), wk =   0.0063492
        k(   16) = (   0.0000000   0.7291192   0.0000000), wk =   0.0063492
        k(   17) = (   0.0000000   0.7291192   0.2376289), wk =   0.0063492
        k(   18) = (   0.0000000   0.7291192   0.4752578), wk =   0.0063492
        k(   19) = (   0.0000000   0.7291192   0.7128867), wk =   0.0063492
        k(   20) = (   0.0000000   0.7291192   0.9505157), wk =   0.0063492
        k(   21) = (   0.2000000   0.0000000   0.0000000), wk =   0.0063492
        k(   22) = (   0.2000000   0.0000000   0.2376289), wk =   0.0063492
        k(   23) = (   0.2000000   0.0000000   0.4752578), wk =   0.0063492
        k(   24) = (   0.2000000   0.0000000   0.7128867), wk =   0.0063492
        k(   25) = (   0.2000000   0.0000000   0.9505157), wk =   0.0063492
        k(   26) = (   0.2000000   0.2430397   0.0000000), wk =   0.0063492
        k(   27) = (   0.2000000   0.2430397   0.2376289), wk =   0.0063492
        k(   28) = (   0.2000000   0.2430397   0.4752578), wk =   0.0063492
        k(   29) = (   0.2000000   0.2430397   0.7128867), wk =   0.0063492
        k(   30) = (   0.2000000   0.2430397   0.9505157), wk =   0.0063492
        k(   31) = (   0.2000000   0.4860795   0.0000000), wk =   0.0063492
        k(   32) = (   0.2000000   0.4860795   0.2376289), wk =   0.0063492
        k(   33) = (   0.2000000   0.4860795   0.4752578), wk =   0.0063492
        k(   34) = (   0.2000000   0.4860795   0.7128867), wk =   0.0063492
        k(   35) = (   0.2000000   0.4860795   0.9505157), wk =   0.0063492
        k(   36) = (   0.2000000   0.7291192   0.0000000), wk =   0.0063492
        k(   37) = (   0.2000000   0.7291192   0.2376289), wk =   0.0063492
        k(   38) = (   0.2000000   0.7291192   0.4752578), wk =   0.0063492
        k(   39) = (   0.2000000   0.7291192   0.7128867), wk =   0.0063492
        k(   40) = (   0.2000000   0.7291192   0.9505157), wk =   0.0063492
        k(   41) = (   0.4000000   0.0000000   0.0000000), wk =   0.0063492
        k(   42) = (   0.4000000   0.0000000   0.2376289), wk =   0.0063492
        k(   43) = (   0.4000000   0.0000000   0.4752578), wk =   0.0063492
        k(   44) = (   0.4000000   0.0000000   0.7128867), wk =   0.0063492
        k(   45) = (   0.4000000   0.0000000   0.9505157), wk =   0.0063492
        k(   46) = (   0.4000000   0.2430397   0.0000000), wk =   0.0063492
        k(   47) = (   0.4000000   0.2430397   0.2376289), wk =   0.0063492
        k(   48) = (   0.4000000   0.2430397   0.4752578), wk =   0.0063492
        k(   49) = (   0.4000000   0.2430397   0.7128867), wk =   0.0063492
        k(   50) = (   0.4000000   0.2430397   0.9505157), wk =   0.0063492
        k(   51) = (   0.4000000   0.4860795   0.0000000), wk =   0.0063492
        k(   52) = (   0.4000000   0.4860795   0.2376289), wk =   0.0063492
        k(   53) = (   0.4000000   0.4860795   0.4752578), wk =   0.0063492
        k(   54) = (   0.4000000   0.4860795   0.7128867), wk =   0.0063492
        k(   55) = (   0.4000000   0.4860795   0.9505157), wk =   0.0063492
        k(   56) = (   0.4000000   0.7291192   0.0000000), wk =   0.0063492
        k(   57) = (   0.4000000   0.7291192   0.2376289), wk =   0.0063492
        k(   58) = (   0.4000000   0.7291192   0.4752578), wk =   0.0063492
        k(   59) = (   0.4000000   0.7291192   0.7128867), wk =   0.0063492
        k(   60) = (   0.4000000   0.7291192   0.9505157), wk =   0.0063492
        k(   61) = (   0.0000000  -0.2430397   0.2376289), wk =   0.0063492
        k(   62) = (   0.0000000  -0.2430397   0.4752578), wk =   0.0063492
        k(   63) = (   0.0000000  -0.2430397   0.7128867), wk =   0.0063492
        k(   64) = (   0.0000000  -0.2430397   0.9505157), wk =   0.0063492
        k(   65) = (   0.0000000  -0.4860795   0.2376289), wk =   0.0063492
        k(   66) = (   0.0000000  -0.4860795   0.4752578), wk =   0.0063492
        k(   67) = (   0.0000000  -0.4860795   0.7128867), wk =   0.0063492
        k(   68) = (   0.0000000  -0.4860795   0.9505157), wk =   0.0063492
        k(   69) = (   0.0000000  -0.7291192   0.2376289), wk =   0.0063492
        k(   70) = (   0.0000000  -0.7291192   0.4752578), wk =   0.0063492
        k(   71) = (   0.0000000  -0.7291192   0.7128867), wk =   0.0063492
        k(   72) = (   0.0000000  -0.7291192   0.9505157), wk =   0.0063492
        k(   73) = (  -0.2000000   0.0000000   0.2376289), wk =   0.0063492
        k(   74) = (  -0.2000000   0.0000000   0.4752578), wk =   0.0063492
        k(   75) = (  -0.2000000   0.0000000   0.7128867), wk =   0.0063492
        k(   76) = (  -0.2000000   0.0000000   0.9505157), wk =   0.0063492
        k(   77) = (  -0.2000000   0.2430397   0.0000000), wk =   0.0063492
        k(   78) = (  -0.2000000  -0.2430397   0.2376289), wk =   0.0063492
        k(   79) = (  -0.2000000   0.2430397  -0.2376289), wk =   0.0063492
        k(   80) = (   0.2000000  -0.2430397  -0.2376289), wk =   0.0063492
        k(   81) = (  -0.2000000  -0.2430397   0.4752578), wk =   0.0063492
        k(   82) = (  -0.2000000   0.2430397  -0.4752578), wk =   0.0063492
        k(   83) = (   0.2000000  -0.2430397  -0.4752578), wk =   0.0063492
        k(   84) = (  -0.2000000  -0.2430397   0.7128867), wk =   0.0063492
        k(   85) = (  -0.2000000   0.2430397  -0.7128867), wk =   0.0063492
        k(   86) = (   0.2000000  -0.2430397  -0.7128867), wk =   0.0063492
        k(   87) = (  -0.2000000  -0.2430397   0.9505157), wk =   0.0063492
        k(   88) = (  -0.2000000   0.2430397  -0.9505157), wk =   0.0063492
        k(   89) = (   0.2000000  -0.2430397  -0.9505157), wk =   0.0063492
        k(   90) = (  -0.2000000   0.4860795   0.0000000), wk =   0.0063492
        k(   91) = (  -0.2000000  -0.4860795   0.2376289), wk =   0.0063492
        k(   92) = (  -0.2000000   0.4860795  -0.2376289), wk =   0.0063492
        k(   93) = (   0.2000000  -0.4860795  -0.2376289), wk =   0.0063492
        k(   94) = (  -0.2000000  -0.4860795   0.4752578), wk =   0.0063492
        k(   95) = (  -0.2000000   0.4860795  -0.4752578), wk =   0.0063492
        k(   96) = (   0.2000000  -0.4860795  -0.4752578), wk =   0.0063492
        k(   97) = (  -0.2000000  -0.4860795   0.7128867), wk =   0.0063492
        k(   98) = (  -0.2000000   0.4860795  -0.7128867), wk =   0.0063492
        k(   99) = (   0.2000000  -0.4860795  -0.7128867), wk =   0.0063492
        k(  100) = (  -0.2000000  -0.4860795   0.9505157), wk =   0.0063492
        k(  101) = (  -0.2000000   0.4860795  -0.9505157), wk =   0.0063492
        k(  102) = (   0.2000000  -0.4860795  -0.9505157), wk =   0.0063492
        k(  103) = (  -0.2000000   0.7291192   0.0000000), wk =   0.0063492
        k(  104) = (  -0.2000000  -0.7291192   0.2376289), wk =   0.0063492
        k(  105) = (  -0.2000000   0.7291192  -0.2376289), wk =   0.0063492
        k(  106) = (   0.2000000  -0.7291192  -0.2376289), wk =   0.0063492
        k(  107) = (  -0.2000000  -0.7291192   0.4752578), wk =   0.0063492
        k(  108) = (  -0.2000000   0.7291192  -0.4752578), wk =   0.0063492
        k(  109) = (   0.2000000  -0.7291192  -0.4752578), wk =   0.0063492
        k(  110) = (  -0.2000000  -0.7291192   0.7128867), wk =   0.0063492
        k(  111) = (  -0.2000000   0.7291192  -0.7128867), wk =   0.0063492
        k(  112) = (   0.2000000  -0.7291192  -0.7128867), wk =   0.0063492
        k(  113) = (  -0.2000000  -0.7291192   0.9505157), wk =   0.0063492
        k(  114) = (  -0.2000000   0.7291192  -0.9505157), wk =   0.0063492
        k(  115) = (   0.2000000  -0.7291192  -0.9505157), wk =   0.0063492
        k(  116) = (  -0.4000000   0.0000000   0.2376289), wk =   0.0063492
        k(  117) = (  -0.4000000   0.0000000   0.4752578), wk =   0.0063492
        k(  118) = (  -0.4000000   0.0000000   0.7128867), wk =   0.0063492
        k(  119) = (  -0.4000000   0.0000000   0.9505157), wk =   0.0063492
        k(  120) = (  -0.4000000   0.2430397   0.0000000), wk =   0.0063492
        k(  121) = (  -0.4000000  -0.2430397   0.2376289), wk =   0.0063492
        k(  122) = (  -0.4000000   0.2430397  -0.2376289), wk =   0.0063492
        k(  123) = (   0.4000000  -0.2430397  -0.2376289), wk =   0.0063492
        k(  124) = (  -0.4000000  -0.2430397   0.4752578), wk =   0.0063492
        k(  125) = (  -0.4000000   0.2430397  -0.4752578), wk =   0.0063492
        k(  126) = (   0.4000000  -0.2430397  -0.4752578), wk =   0.0063492
        k(  127) = (  -0.4000000  -0.2430397   0.7128867), wk =   0.0063492
        k(  128) = (  -0.4000000   0.2430397  -0.7128867), wk =   0.0063492
        k(  129) = (   0.4000000  -0.2430397  -0.7128867), wk =   0.0063492
        k(  130) = (  -0.4000000  -0.2430397   0.9505157), wk =   0.0063492
        k(  131) = (  -0.4000000   0.2430397  -0.9505157), wk =   0.0063492
        k(  132) = (   0.4000000  -0.2430397  -0.9505157), wk =   0.0063492
        k(  133) = (  -0.4000000   0.4860795   0.0000000), wk =   0.0063492
        k(  134) = (  -0.4000000  -0.4860795   0.2376289), wk =   0.0063492
        k(  135) = (  -0.4000000   0.4860795  -0.2376289), wk =   0.0063492
        k(  136) = (   0.4000000  -0.4860795  -0.2376289), wk =   0.0063492
        k(  137) = (  -0.4000000  -0.4860795   0.4752578), wk =   0.0063492
        k(  138) = (  -0.4000000   0.4860795  -0.4752578), wk =   0.0063492
        k(  139) = (   0.4000000  -0.4860795  -0.4752578), wk =   0.0063492
        k(  140) = (  -0.4000000  -0.4860795   0.7128867), wk =   0.0063492
        k(  141) = (  -0.4000000   0.4860795  -0.7128867), wk =   0.0063492
        k(  142) = (   0.4000000  -0.4860795  -0.7128867), wk =   0.0063492
        k(  143) = (  -0.4000000  -0.4860795   0.9505157), wk =   0.0063492
        k(  144) = (  -0.4000000   0.4860795  -0.9505157), wk =   0.0063492
        k(  145) = (   0.4000000  -0.4860795  -0.9505157), wk =   0.0063492
        k(  146) = (  -0.4000000   0.7291192   0.0000000), wk =   0.0063492
        k(  147) = (  -0.4000000  -0.7291192   0.2376289), wk =   0.0063492
        k(  148) = (  -0.4000000   0.7291192  -0.2376289), wk =   0.0063492
        k(  149) = (   0.4000000  -0.7291192  -0.2376289), wk =   0.0063492
        k(  150) = (  -0.4000000  -0.7291192   0.4752578), wk =   0.0063492
        k(  151) = (  -0.4000000   0.7291192  -0.4752578), wk =   0.0063492
        k(  152) = (   0.4000000  -0.7291192  -0.4752578), wk =   0.0063492
        k(  153) = (  -0.4000000  -0.7291192   0.7128867), wk =   0.0063492
        k(  154) = (  -0.4000000   0.7291192  -0.7128867), wk =   0.0063492
        k(  155) = (   0.4000000  -0.7291192  -0.7128867), wk =   0.0063492
        k(  156) = (  -0.4000000  -0.7291192   0.9505157), wk =   0.0063492
        k(  157) = (  -0.4000000   0.7291192  -0.9505157), wk =   0.0063492
        k(  158) = (   0.4000000  -0.7291192  -0.9505157), wk =   0.0063492

                       cryst. coord.
        k(    1) = (   0.0000000   0.0000000   0.0000000), wk =   0.0031746
        k(    2) = (   0.0000000   0.0000000   0.1111111), wk =   0.0063492
        k(    3) = (   0.0000000   0.0000000   0.2222222), wk =   0.0063492
        k(    4) = (   0.0000000   0.0000000   0.3333333), wk =   0.0063492
        k(    5) = (   0.0000000   0.0000000   0.4444444), wk =   0.0063492
        k(    6) = (   0.0000000   0.1428571   0.0000000), wk =   0.0063492
        k(    7) = (   0.0000000   0.1428571   0.1111111), wk =   0.0063492
        k(    8) = (   0.0000000   0.1428571   0.2222222), wk =   0.0063492
        k(    9) = (   0.0000000   0.1428571   0.3333333), wk =   0.0063492
        k(   10) = (   0.0000000   0.1428571   0.4444444), wk =   0.0063492
        k(   11) = (   0.0000000   0.2857143   0.0000000), wk =   0.0063492
        k(   12) = (   0.0000000   0.2857143   0.1111111), wk =   0.0063492
        k(   13) = (   0.0000000   0.2857143   0.2222222), wk =   0.0063492
        k(   14) = (   0.0000000   0.2857143   0.3333333), wk =   0.0063492
        k(   15) = (   0.0000000   0.2857143   0.4444444), wk =   0.0063492
        k(   16) = (   0.0000000   0.4285714   0.0000000), wk =   0.0063492
        k(   17) = (   0.0000000   0.4285714   0.1111111), wk =   0.0063492
        k(   18) = (   0.0000000   0.4285714   0.2222222), wk =   0.0063492
        k(   19) = (   0.0000000   0.4285714   0.3333333), wk =   0.0063492
        k(   20) = (   0.0000000   0.4285714   0.4444444), wk =   0.0063492
        k(   21) = (   0.2000000   0.0000000   0.0000000), wk =   0.0063492
        k(   22) = (   0.2000000   0.0000000   0.1111111), wk =   0.0063492
        k(   23) = (   0.2000000   0.0000000   0.2222222), wk =   0.0063492
        k(   24) = (   0.2000000   0.0000000   0.3333333), wk =   0.0063492
        k(   25) = (   0.2000000   0.0000000   0.4444444), wk =   0.0063492
        k(   26) = (   0.2000000   0.1428571   0.0000000), wk =   0.0063492
        k(   27) = (   0.2000000   0.1428571   0.1111111), wk =   0.0063492
        k(   28) = (   0.2000000   0.1428571   0.2222222), wk =   0.0063492
        k(   29) = (   0.2000000   0.1428571   0.3333333), wk =   0.0063492
        k(   30) = (   0.2000000   0.1428571   0.4444444), wk =   0.0063492
        k(   31) = (   0.2000000   0.2857143   0.0000000), wk =   0.0063492
        k(   32) = (   0.2000000   0.2857143   0.1111111), wk =   0.0063492
        k(   33) = (   0.2000000   0.2857143   0.2222222), wk =   0.0063492
        k(   34) = (   0.2000000   0.2857143   0.3333333), wk =   0.0063492
        k(   35) = (   0.2000000   0.2857143   0.4444444), wk =   0.0063492
        k(   36) = (   0.2000000   0.4285714   0.0000000), wk =   0.0063492
        k(   37) = (   0.2000000   0.4285714   0.1111111), wk =   0.0063492
        k(   38) = (   0.2000000   0.4285714   0.2222222), wk =   0.0063492
        k(   39) = (   0.2000000   0.4285714   0.3333333), wk =   0.0063492
        k(   40) = (   0.2000000   0.4285714   0.4444444), wk =   0.0063492
        k(   41) = (   0.4000000   0.0000000   0.0000000), wk =   0.0063492
        k(   42) = (   0.4000000   0.0000000   0.1111111), wk =   0.0063492
        k(   43) = (   0.4000000   0.0000000   0.2222222), wk =   0.0063492
        k(   44) = (   0.4000000   0.0000000   0.3333333), wk =   0.0063492
        k(   45) = (   0.4000000   0.0000000   0.4444444), wk =   0.0063492
        k(   46) = (   0.4000000   0.1428571   0.0000000), wk =   0.0063492
        k(   47) = (   0.4000000   0.1428571   0.1111111), wk =   0.0063492
        k(   48) = (   0.4000000   0.1428571   0.2222222), wk =   0.0063492
        k(   49) = (   0.4000000   0.1428571   0.3333333), wk =   0.0063492
        k(   50) = (   0.4000000   0.1428571   0.4444444), wk =   0.0063492
        k(   51) = (   0.4000000   0.2857143   0.0000000), wk =   0.0063492
        k(   52) = (   0.4000000   0.2857143   0.1111111), wk =   0.0063492
        k(   53) = (   0.4000000   0.2857143   0.2222222), wk =   0.0063492
        k(   54) = (   0.4000000   0.2857143   0.3333333), wk =   0.0063492
        k(   55) = (   0.4000000   0.2857143   0.4444444), wk =   0.0063492
        k(   56) = (   0.4000000   0.4285714   0.0000000), wk =   0.0063492
        k(   57) = (   0.4000000   0.4285714   0.1111111), wk =   0.0063492
        k(   58) = (   0.4000000   0.4285714   0.2222222), wk =   0.0063492
        k(   59) = (   0.4000000   0.4285714   0.3333333), wk =   0.0063492
        k(   60) = (   0.4000000   0.4285714   0.4444444), wk =   0.0063492
        k(   61) = (   0.0000000  -0.1428571   0.1111111), wk =   0.0063492
        k(   62) = (   0.0000000  -0.1428571   0.2222222), wk =   0.0063492
        k(   63) = (   0.0000000  -0.1428571   0.3333333), wk =   0.0063492
        k(   64) = (   0.0000000  -0.1428571   0.4444444), wk =   0.0063492
        k(   65) = (   0.0000000  -0.2857143   0.1111111), wk =   0.0063492
        k(   66) = (   0.0000000  -0.2857143   0.2222222), wk =   0.0063492
        k(   67) = (   0.0000000  -0.2857143   0.3333333), wk =   0.0063492
        k(   68) = (   0.0000000  -0.2857143   0.4444444), wk =   0.0063492
        k(   69) = (   0.0000000  -0.4285714   0.1111111), wk =   0.0063492
        k(   70) = (   0.0000000  -0.4285714   0.2222222), wk =   0.0063492
        k(   71) = (   0.0000000  -0.4285714   0.3333333), wk =   0.0063492
        k(   72) = (   0.0000000  -0.4285714   0.4444444), wk =   0.0063492
        k(   73) = (  -0.2000000   0.0000000   0.1111111), wk =   0.0063492
        k(   74) = (  -0.2000000   0.0000000   0.2222222), wk =   0.0063492
        k(   75) = (  -0.2000000   0.0000000   0.3333333), wk =   0.0063492
        k(   76) = (  -0.2000000   0.0000000   0.4444444), wk =   0.0063492
        k(   77) = (  -0.2000000   0.1428571   0.0000000), wk =   0.0063492
        k(   78) = (  -0.2000000  -0.1428571   0.1111111), wk =   0.0063492
        k(   79) = (  -0.2000000   0.1428571  -0.1111111), wk =   0.0063492
        k(   80) = (   0.2000000  -0.1428571  -0.1111111), wk =   0.0063492
        k(   81) = (  -0.2000000  -0.1428571   0.2222222), wk =   0.0063492
        k(   82) = (  -0.2000000   0.1428571  -0.2222222), wk =   0.0063492
        k(   83) = (   0.2000000  -0.1428571  -0.2222222), wk =   0.0063492
        k(   84) = (  -0.2000000  -0.1428571   0.3333333), wk =   0.0063492
        k(   85) = (  -0.2000000   0.1428571  -0.3333333), wk =   0.0063492
        k(   86) = (   0.2000000  -0.1428571  -0.3333333), wk =   0.0063492
        k(   87) = (  -0.2000000  -0.1428571   0.4444444), wk =   0.0063492
        k(   88) = (  -0.2000000   0.1428571  -0.4444444), wk =   0.0063492
        k(   89) = (   0.2000000  -0.1428571  -0.4444444), wk =   0.0063492
        k(   90) = (  -0.2000000   0.2857143   0.0000000), wk =   0.0063492
        k(   91) = (  -0.2000000  -0.2857143   0.1111111), wk =   0.0063492
        k(   92) = (  -0.2000000   0.2857143  -0.1111111), wk =   0.0063492
        k(   93) = (   0.2000000  -0.2857143  -0.1111111), wk =   0.0063492
        k(   94) = (  -0.2000000  -0.2857143   0.2222222), wk =   0.0063492
        k(   95) = (  -0.2000000   0.2857143  -0.2222222), wk =   0.0063492
        k(   96) = (   0.2000000  -0.2857143  -0.2222222), wk =   0.0063492
        k(   97) = (  -0.2000000  -0.2857143   0.3333333), wk =   0.0063492
        k(   98) = (  -0.2000000   0.2857143  -0.3333333), wk =   0.0063492
        k(   99) = (   0.2000000  -0.2857143  -0.3333333), wk =   0.0063492
        k(  100) = (  -0.2000000  -0.2857143   0.4444444), wk =   0.0063492
        k(  101) = (  -0.2000000   0.2857143  -0.4444444), wk =   0.0063492
        k(  102) = (   0.2000000  -0.2857143  -0.4444444), wk =   0.0063492
        k(  103) = (  -0.2000000   0.4285714   0.0000000), wk =   0.0063492
        k(  104) = (  -0.2000000  -0.4285714   0.1111111), wk =   0.0063492
        k(  105) = (  -0.2000000   0.4285714  -0.1111111), wk =   0.0063492
        k(  106) = (   0.2000000  -0.4285714  -0.1111111), wk =   0.0063492
        k(  107) = (  -0.2000000  -0.4285714   0.2222222), wk =   0.0063492
        k(  108) = (  -0.2000000   0.4285714  -0.2222222), wk =   0.0063492
        k(  109) = (   0.2000000  -0.4285714  -0.2222222), wk =   0.0063492
        k(  110) = (  -0.2000000  -0.4285714   0.3333333), wk =   0.0063492
        k(  111) = (  -0.2000000   0.4285714  -0.3333333), wk =   0.0063492
        k(  112) = (   0.2000000  -0.4285714  -0.3333333), wk =   0.0063492
        k(  113) = (  -0.2000000  -0.4285714   0.4444444), wk =   0.0063492
        k(  114) = (  -0.2000000   0.4285714  -0.4444444), wk =   0.0063492
        k(  115) = (   0.2000000  -0.4285714  -0.4444444), wk =   0.0063492
        k(  116) = (  -0.4000000   0.0000000   0.1111111), wk =   0.0063492
        k(  117) = (  -0.4000000   0.0000000   0.2222222), wk =   0.0063492
        k(  118) = (  -0.4000000   0.0000000   0.3333333), wk =   0.0063492
        k(  119) = (  -0.4000000   0.0000000   0.4444444), wk =   0.0063492
        k(  120) = (  -0.4000000   0.1428571   0.0000000), wk =   0.0063492
        k(  121) = (  -0.4000000  -0.1428571   0.1111111), wk =   0.0063492
        k(  122) = (  -0.4000000   0.1428571  -0.1111111), wk =   0.0063492
        k(  123) = (   0.4000000  -0.1428571  -0.1111111), wk =   0.0063492
        k(  124) = (  -0.4000000  -0.1428571   0.2222222), wk =   0.0063492
        k(  125) = (  -0.4000000   0.1428571  -0.2222222), wk =   0.0063492
        k(  126) = (   0.4000000  -0.1428571  -0.2222222), wk =   0.0063492
        k(  127) = (  -0.4000000  -0.1428571   0.3333333), wk =   0.0063492
        k(  128) = (  -0.4000000   0.1428571  -0.3333333), wk =   0.0063492
        k(  129) = (   0.4000000  -0.1428571  -0.3333333), wk =   0.0063492
        k(  130) = (  -0.4000000  -0.1428571   0.4444444), wk =   0.0063492
        k(  131) = (  -0.4000000   0.1428571  -0.4444444), wk =   0.0063492
        k(  132) = (   0.4000000  -0.1428571  -0.4444444), wk =   0.0063492
        k(  133) = (  -0.4000000   0.2857143   0.0000000), wk =   0.0063492
        k(  134) = (  -0.4000000  -0.2857143   0.1111111), wk =   0.0063492
        k(  135) = (  -0.4000000   0.2857143  -0.1111111), wk =   0.0063492
        k(  136) = (   0.4000000  -0.2857143  -0.1111111), wk =   0.0063492
        k(  137) = (  -0.4000000  -0.2857143   0.2222222), wk =   0.0063492
        k(  138) = (  -0.4000000   0.2857143  -0.2222222), wk =   0.0063492
        k(  139) = (   0.4000000  -0.2857143  -0.2222222), wk =   0.0063492
        k(  140) = (  -0.4000000  -0.2857143   0.3333333), wk =   0.0063492
        k(  141) = (  -0.4000000   0.2857143  -0.3333333), wk =   0.0063492
        k(  142) = (   0.4000000  -0.2857143  -0.3333333), wk =   0.0063492
        k(  143) = (  -0.4000000  -0.2857143   0.4444444), wk =   0.0063492
        k(  144) = (  -0.4000000   0.2857143  -0.4444444), wk =   0.0063492
        k(  145) = (   0.4000000  -0.2857143  -0.4444444), wk =   0.0063492
        k(  146) = (  -0.4000000   0.4285714   0.0000000), wk =   0.0063492
        k(  147) = (  -0.4000000  -0.4285714   0.1111111), wk =   0.0063492
        k(  148) = (  -0.4000000   0.4285714  -0.1111111), wk =   0.0063492
        k(  149) = (   0.4000000  -0.4285714  -0.1111111), wk =   0.0063492
        k(  150) = (  -0.4000000  -0.4285714   0.2222222), wk =   0.0063492
        k(  151) = (  -0.4000000   0.4285714  -0.2222222), wk =   0.0063492
        k(  152) = (   0.4000000  -0.4285714  -0.2222222), wk =   0.0063492
        k(  153) = (  -0.4000000  -0.4285714   0.3333333), wk =   0.0063492
        k(  154) = (  -0.4000000   0.4285714  -0.3333333), wk =   0.0063492
        k(  155) = (   0.4000000  -0.4285714  -0.3333333), wk =   0.0063492
        k(  156) = (  -0.4000000  -0.4285714   0.4444444), wk =   0.0063492
        k(  157) = (  -0.4000000   0.4285714  -0.4444444), wk =   0.0063492
        k(  158) = (   0.4000000  -0.4285714  -0.4444444), wk =   0.0063492

     Dense  grid:  1316619 G-vectors     FFT dimensions: ( 216, 125, 100)

     Smooth grid:   296831 G-vectors     FFT dimensions: ( 128,  75,  60)

     Dynamical RAM for                 wfc:       2.02 MB

     Dynamical RAM for     wfc (w. buffer):     639.10 MB

     Dynamical RAM for           str. fact:       2.51 MB

     Dynamical RAM for           local pot:       0.00 MB

     Dynamical RAM for          nlocal pot:       4.95 MB

     Dynamical RAM for                qrad:      10.54 MB

     Dynamical RAM for          rho,v,vnew:       8.71 MB

     Dynamical RAM for               rhoin:       2.90 MB

     Dynamical RAM for            rho*nmix:      20.09 MB

     Dynamical RAM for           G-vectors:       2.43 MB

     Dynamical RAM for          h,s,v(r/c):       2.38 MB

     Dynamical RAM for          <psi|beta>:       0.49 MB

     Dynamical RAM for                 psi:       4.03 MB

     Dynamical RAM for                hpsi:       4.03 MB

     Dynamical RAM for                spsi:       4.03 MB

     Dynamical RAM for      wfcinit/wfcrot:       5.28 MB

     Dynamical RAM for           addusdens:     127.45 MB

     Dynamical RAM for          addusforce:     146.41 MB

     Dynamical RAM for         addusstress:     127.13 MB

     Estimated static dynamical RAM per process >     699.32 MB

     Estimated max dynamical RAM per process >     845.72 MB

     Estimated total dynamical RAM >      26.43 GB

     Check: negative core charge=   -0.000003
     Generating pointlists ...
     new r_m :   0.0761 (alat units)  1.5222 (a.u.) for type    1
     new r_m :   0.0854 (alat units)  1.7065 (a.u.) for type    2
     new r_m :   0.0599 (alat units)  1.1984 (a.u.) for type    3
     new r_m :   0.0599 (alat units)  1.1984 (a.u.) for type    4

     Initial potential from superposition of free atoms

     starting charge  188.99132, renormalised to  189.00000
     Starting wfcs are  137 randomized atomic wfcs
     Checking if some PAW data can be deallocated... 
       PAW data deallocated on   24 nodes for type:  1
       PAW data deallocated on   16 nodes for type:  3

     total cpu time spent up to now is     1394.9 secs

     Self-consistent Calculation

     iteration #  1     ecut=   100.00 Ry     beta= 0.40
     Davidson diagonalization with overlap
     ethr =  1.00E-02,  avg # of iterations =  3.0

     negative rho (up, down):  0.000E+00 6.890E-05

     total cpu time spent up to now is     5053.1 secs

     total energy              =   -2123.85316032 Ry
     estimated scf accuracy    <       6.90800213 Ry

     total magnetization       =    19.00 Bohr mag/cell
     absolute magnetization    =    19.00 Bohr mag/cell

     iteration #  2     ecut=   100.00 Ry     beta= 0.40
     Davidson diagonalization with overlap
     ethr =  3.66E-03,  avg # of iterations =  2.0

     negative rho (up, down):  0.000E+00 3.871E-05

     total cpu time spent up to now is     8493.1 secs

     total energy              =   -2121.90612755 Ry
     estimated scf accuracy    <      24.22863779 Ry

     total magnetization       =     9.39 Bohr mag/cell
     absolute magnetization    =    10.17 Bohr mag/cell

     iteration #  3     ecut=   100.00 Ry     beta= 0.40
     Davidson diagonalization with overlap
     ethr =  3.66E-03,  avg # of iterations =  2.0

     negative rho (up, down):  0.000E+00 2.949E-05

     total cpu time spent up to now is    11397.5 secs

     total energy              =   -2124.39518910 Ry
     estimated scf accuracy    <      30.20977620 Ry

     total magnetization       =    11.00 Bohr mag/cell
     absolute magnetization    =    11.99 Bohr mag/cell

     iteration #  4     ecut=   100.00 Ry     beta= 0.40
     Davidson diagonalization with overlap
     ethr =  3.66E-03,  avg # of iterations =  2.0

     negative rho (up, down):  0.000E+00 7.368E-05

     total cpu time spent up to now is    14233.7 secs

     total energy              =   -2125.48460424 Ry
     estimated scf accuracy    <      10.61040057 Ry

     total magnetization       =    14.91 Bohr mag/cell
     absolute magnetization    =    15.18 Bohr mag/cell

     iteration #  5     ecut=   100.00 Ry     beta= 0.40
     Davidson diagonalization with overlap
     ethr =  3.66E-03,  avg # of iterations =  1.5

     negative rho (up, down):  0.000E+00 9.727E-05

     total cpu time spent up to now is    16992.3 secs

     total energy              =   -2125.65292432 Ry
     estimated scf accuracy    <       6.95984916 Ry

     total magnetization       =    14.92 Bohr mag/cell
     absolute magnetization    =    15.06 Bohr mag/cell

     iteration #  6     ecut=   100.00 Ry     beta= 0.40
     Davidson diagonalization with overlap
     ethr =  3.66E-03,  avg # of iterations =  1.0

     negative rho (up, down):  0.000E+00 2.601E-04

     total cpu time spent up to now is    19689.5 secs

     total energy              =   -2126.00212580 Ry
     estimated scf accuracy    <       0.71580948 Ry

     total magnetization       =    19.00 Bohr mag/cell
     absolute magnetization    =    19.00 Bohr mag/cell

     iteration #  7     ecut=   100.00 Ry     beta= 0.40
     Davidson diagonalization with overlap
     ethr =  3.79E-04,  avg # of iterations =  1.3

     negative rho (up, down):  0.000E+00 3.318E-04

     total cpu time spent up to now is    22425.1 secs

     total energy              =   -2126.00043414 Ry
     estimated scf accuracy    <       0.31054934 Ry

     total magnetization       =    19.00 Bohr mag/cell
     absolute magnetization    =    19.00 Bohr mag/cell

     iteration #  8     ecut=   100.00 Ry     beta= 0.40
     Davidson diagonalization with overlap
     c_bands:  1 eigenvalues not converged
     c_bands:  1 eigenvalues not converged
     c_bands:  1 eigenvalues not converged
     ethr =  1.64E-04,  avg # of iterations =  6.4

     negative rho (up, down):  0.000E+00 5.283E-04

     total cpu time spent up to now is    25662.9 secs

     total energy              =   -2126.00058656 Ry
     estimated scf accuracy    <       0.67601596 Ry

     total magnetization       =    19.00 Bohr mag/cell
     absolute magnetization    =    19.00 Bohr mag/cell

     iteration #  9     ecut=   100.00 Ry     beta= 0.40
     Davidson diagonalization with overlap
     ethr =  1.64E-04,  avg # of iterations =  1.8

     negative rho (up, down):  0.000E+00 8.342E-04

     total cpu time spent up to now is    28442.7 secs

     total energy              =   -2126.00299717 Ry
     estimated scf accuracy    <       0.16582613 Ry

     total magnetization       =    19.00 Bohr mag/cell
     absolute magnetization    =    19.01 Bohr mag/cell

     iteration # 10     ecut=   100.00 Ry     beta= 0.40
     Davidson diagonalization with overlap
     c_bands:  1 eigenvalues not converged
     c_bands:  2 eigenvalues not converged
     c_bands:  1 eigenvalues not converged
     c_bands:  2 eigenvalues not converged
     c_bands:  1 eigenvalues not converged
     c_bands:  2 eigenvalues not converged
     ethr =  8.77E-05,  avg # of iterations =  9.2

     negative rho (up, down):  0.000E+00 9.111E-04

     total cpu time spent up to now is    32014.5 secs

     total energy              =   -2126.01786548 Ry
     estimated scf accuracy    <       0.07271030 Ry

     total magnetization       =    19.00 Bohr mag/cell
     absolute magnetization    =    19.02 Bohr mag/cell

     iteration # 11     ecut=   100.00 Ry     beta= 0.40
     Davidson diagonalization with overlap
     c_bands:  1 eigenvalues not converged
     c_bands:  1 eigenvalues not converged
     c_bands:  1 eigenvalues not converged
     c_bands:  1 eigenvalues not converged
     c_bands:  1 eigenvalues not converged
     c_bands:  1 eigenvalues not converged
     c_bands:  1 eigenvalues not converged
     c_bands:  1 eigenvalues not converged
     c_bands:  2 eigenvalues not converged
     c_bands:  1 eigenvalues not converged
     c_bands:  1 eigenvalues not converged
     c_bands:  1 eigenvalues not converged
     c_bands:  1 eigenvalues not converged
     ethr =  3.85E-05,  avg # of iterations =  7.1

     negative rho (up, down):  0.000E+00 8.973E-04

     total cpu time spent up to now is    35361.1 secs

     total energy              =   -2126.01863845 Ry
     estimated scf accuracy    <       0.05001504 Ry

     total magnetization       =    19.00 Bohr mag/cell
     absolute magnetization    =    19.03 Bohr mag/cell

     iteration # 12     ecut=   100.00 Ry     beta= 0.40
     Davidson diagonalization with overlap
     c_bands:  1 eigenvalues not converged
     c_bands:  1 eigenvalues not converged
     c_bands:  1 eigenvalues not converged
     c_bands:  1 eigenvalues not converged
     c_bands:  1 eigenvalues not converged
     c_bands:  1 eigenvalues not converged
     ethr =  2.65E-05,  avg # of iterations =  2.9

     negative rho (up, down):  0.000E+00 9.171E-04

     total cpu time spent up to now is    38248.5 secs

     total energy              =   -2126.01956896 Ry
     estimated scf accuracy    <       0.05502127 Ry

     total magnetization       =    19.00 Bohr mag/cell
     absolute magnetization    =    19.03 Bohr mag/cell

     iteration # 13     ecut=   100.00 Ry     beta= 0.40
     Davidson diagonalization with overlap
     ethr =  2.65E-05,  avg # of iterations =  1.0

     negative rho (up, down):  0.000E+00 9.277E-04

     total cpu time spent up to now is    40956.4 secs

     total energy              =   -2126.02092704 Ry
     estimated scf accuracy    <       0.00574641 Ry

     total magnetization       =    19.00 Bohr mag/cell
     absolute magnetization    =    19.04 Bohr mag/cell

     iteration # 14     ecut=   100.00 Ry     beta= 0.40
     Davidson diagonalization with overlap
     c_bands:  1 eigenvalues not converged
     c_bands:  1 eigenvalues not converged
     c_bands:  1 eigenvalues not converged
     c_bands:  1 eigenvalues not converged
     c_bands:  1 eigenvalues not converged
     c_bands:  1 eigenvalues not converged
     c_bands:  1 eigenvalues not converged
     c_bands:  1 eigenvalues not converged
     c_bands:  1 eigenvalues not converged
     c_bands:  1 eigenvalues not converged
     c_bands:  1 eigenvalues not converged
     c_bands:  1 eigenvalues not converged
     c_bands:  1 eigenvalues not converged
     c_bands:  1 eigenvalues not converged
     c_bands:  1 eigenvalues not converged
     c_bands:  1 eigenvalues not converged
     c_bands:  1 eigenvalues not converged
     c_bands:  1 eigenvalues not converged
     c_bands:  1 eigenvalues not converged
     c_bands:  1 eigenvalues not converged
     ethr =  3.04E-06,  avg # of iterations = 12.1

     negative rho (up, down):  0.000E+00 9.251E-04

     total cpu time spent up to now is    45225.2 secs

     total energy              =   -2126.02161228 Ry
     estimated scf accuracy    <       0.00215368 Ry

     total magnetization       =    19.00 Bohr mag/cell
     absolute magnetization    =    19.04 Bohr mag/cell

     iteration # 15     ecut=   100.00 Ry     beta= 0.40
     Davidson diagonalization with overlap
     c_bands:  1 eigenvalues not converged
     c_bands:  1 eigenvalues not converged
     ethr =  1.14E-06,  avg # of iterations =  2.2

     negative rho (up, down):  0.000E+00 9.279E-04

     total cpu time spent up to now is    48158.8 secs

     total energy              =   -2126.02183243 Ry
     estimated scf accuracy    <       0.00099292 Ry

     total magnetization       =    19.00 Bohr mag/cell
     absolute magnetization    =    19.04 Bohr mag/cell

     iteration # 16     ecut=   100.00 Ry     beta= 0.40
     Davidson diagonalization with overlap
     ethr =  5.25E-07,  avg # of iterations =  1.7

     negative rho (up, down):  0.000E+00 9.240E-04

     total cpu time spent up to now is    50940.9 secs

     total energy              =   -2126.02190154 Ry
     estimated scf accuracy    <       0.00028103 Ry

     total magnetization       =    19.00 Bohr mag/cell
     absolute magnetization    =    19.05 Bohr mag/cell

     iteration # 17     ecut=   100.00 Ry     beta= 0.40
     Davidson diagonalization with overlap
     ethr =  1.49E-07,  avg # of iterations =  4.1

     negative rho (up, down):  0.000E+00 9.194E-04

     total cpu time spent up to now is    54683.7 secs

     total energy              =   -2126.02197429 Ry
     estimated scf accuracy    <       0.00015614 Ry

     total magnetization       =    19.00 Bohr mag/cell
     absolute magnetization    =    19.05 Bohr mag/cell

     iteration # 18     ecut=   100.00 Ry     beta= 0.40
     Davidson diagonalization with overlap
     ethr =  8.26E-08,  avg # of iterations =  1.1

     negative rho (up, down):  0.000E+00 9.169E-04

     total cpu time spent up to now is    57394.7 secs

     total energy              =   -2126.02197591 Ry
     estimated scf accuracy    <       0.00010093 Ry

     total magnetization       =    19.00 Bohr mag/cell
     absolute magnetization    =    19.05 Bohr mag/cell

     iteration # 19     ecut=   100.00 Ry     beta= 0.40
     Davidson diagonalization with overlap
     ethr =  5.34E-08,  avg # of iterations =  1.1

     negative rho (up, down):  0.000E+00 9.172E-04

     total cpu time spent up to now is    60105.3 secs

     total energy              =   -2126.02198308 Ry
     estimated scf accuracy    <       0.00002424 Ry

     total magnetization       =    19.00 Bohr mag/cell
     absolute magnetization    =    19.05 Bohr mag/cell

     iteration # 20     ecut=   100.00 Ry     beta= 0.40
     Davidson diagonalization with overlap
     ethr =  1.28E-08,  avg # of iterations =  1.7

     negative rho (up, down):  0.000E+00 9.170E-04

     total cpu time spent up to now is    62927.6 secs

     total energy              =   -2126.02198556 Ry
     estimated scf accuracy    <       0.00001022 Ry

     total magnetization       =    19.00 Bohr mag/cell
     absolute magnetization    =    19.05 Bohr mag/cell

     iteration # 21     ecut=   100.00 Ry     beta= 0.40
     Davidson diagonalization with overlap
     ethr =  5.41E-09,  avg # of iterations =  2.0

     negative rho (up, down):  0.000E+00 9.178E-04

     total cpu time spent up to now is    65755.9 secs

     total energy              =   -2126.02198693 Ry
     estimated scf accuracy    <       0.00000454 Ry

     total magnetization       =    19.00 Bohr mag/cell
     absolute magnetization    =    19.05 Bohr mag/cell

     iteration # 22     ecut=   100.00 Ry     beta= 0.40
     Davidson diagonalization with overlap
     ethr =  2.40E-09,  avg # of iterations =  1.7

     negative rho (up, down):  0.000E+00 9.182E-04

     total cpu time spent up to now is    68551.0 secs

     total energy              =   -2126.02198729 Ry
     estimated scf accuracy    <       0.00000650 Ry

     total magnetization       =    19.00 Bohr mag/cell
     absolute magnetization    =    19.05 Bohr mag/cell

     iteration # 23     ecut=   100.00 Ry     beta= 0.40
     Davidson diagonalization with overlap
     ethr =  2.40E-09,  avg # of iterations =  1.3

     negative rho (up, down):  0.000E+00 9.182E-04

     total cpu time spent up to now is    71280.0 secs

     total energy              =   -2126.02198785 Ry
     estimated scf accuracy    <       0.00000287 Ry

     total magnetization       =    19.00 Bohr mag/cell
     absolute magnetization    =    19.05 Bohr mag/cell

     iteration # 24     ecut=   100.00 Ry     beta= 0.40
     Davidson diagonalization with overlap
     ethr =  1.52E-09,  avg # of iterations =  1.1

     negative rho (up, down):  0.000E+00 9.184E-04

     total cpu time spent up to now is    73996.5 secs

     total energy              =   -2126.02198802 Ry
     estimated scf accuracy    <       0.00000054 Ry

     total magnetization       =    19.00 Bohr mag/cell
     absolute magnetization    =    19.05 Bohr mag/cell

     iteration # 25     ecut=   100.00 Ry     beta= 0.40
     Davidson diagonalization with overlap
     ethr =  2.87E-10,  avg # of iterations =  3.3

     negative rho (up, down):  0.000E+00 9.184E-04

     total cpu time spent up to now is    77626.7 secs

     total energy              =   -2126.02198825 Ry
     estimated scf accuracy    <       0.00000019 Ry

     total magnetization       =    19.00 Bohr mag/cell
     absolute magnetization    =    19.05 Bohr mag/cell

     iteration # 26     ecut=   100.00 Ry     beta= 0.40
     Davidson diagonalization with overlap
     ethr =  9.80E-11,  avg # of iterations =  2.1

     negative rho (up, down):  0.000E+00 9.184E-04

     total cpu time spent up to now is    80504.2 secs

     total energy              =   -2126.02198828 Ry
     estimated scf accuracy    <       0.00000028 Ry

     total magnetization       =    19.00 Bohr mag/cell
     absolute magnetization    =    19.05 Bohr mag/cell

     iteration # 27     ecut=   100.00 Ry     beta= 0.40
     Davidson diagonalization with overlap
     ethr =  9.80E-11,  avg # of iterations =  1.2

     negative rho (up, down):  0.000E+00 9.183E-04

     total cpu time spent up to now is    83234.2 secs

     total energy              =   -2126.02198830 Ry
     estimated scf accuracy    <       0.00000012 Ry

     total magnetization       =    19.00 Bohr mag/cell
     absolute magnetization    =    19.05 Bohr mag/cell

     iteration # 28     ecut=   100.00 Ry     beta= 0.40
     Davidson diagonalization with overlap
     ethr =  6.49E-11,  avg # of iterations =  1.1

     negative rho (up, down):  0.000E+00 9.183E-04

     total cpu time spent up to now is    85949.4 secs

     total energy              =   -2126.02198831 Ry
     estimated scf accuracy    <       0.00000007 Ry

     total magnetization       =    19.00 Bohr mag/cell
     absolute magnetization    =    19.05 Bohr mag/cell

     iteration # 29     ecut=   100.00 Ry     beta= 0.40
     Davidson diagonalization with overlap
     ethr =  3.52E-11,  avg # of iterations =  1.2

     negative rho (up, down):  0.000E+00 9.183E-04

     total cpu time spent up to now is    88675.2 secs

     total energy              =   -2126.02198832 Ry
     estimated scf accuracy    <       0.00000003 Ry

     total magnetization       =    19.00 Bohr mag/cell
     absolute magnetization    =    19.05 Bohr mag/cell

     iteration # 30     ecut=   100.00 Ry     beta= 0.40
     Davidson diagonalization with overlap
     ethr =  1.50E-11,  avg # of iterations =  1.8

     negative rho (up, down):  0.000E+00 9.183E-04

     total cpu time spent up to now is    91485.0 secs

     total energy              =   -2126.02198832 Ry
     estimated scf accuracy    <          4.6E-10 Ry

     total magnetization       =    19.00 Bohr mag/cell
     absolute magnetization    =    19.05 Bohr mag/cell

     iteration # 31     ecut=   100.00 Ry     beta= 0.40
     Davidson diagonalization with overlap
     ethr =  2.43E-13,  avg # of iterations =  9.6

     negative rho (up, down):  0.000E+00 9.183E-04

     total cpu time spent up to now is    99894.5 secs

     total energy              =   -2126.02198832 Ry
     estimated scf accuracy    <          7.0E-10 Ry

     total magnetization       =    19.00 Bohr mag/cell
     absolute magnetization    =    19.05 Bohr mag/cell

     iteration # 32     ecut=   100.00 Ry     beta= 0.40
     Davidson diagonalization with overlap
     ethr =  2.43E-13,  avg # of iterations =  2.0

     negative rho (up, down):  0.000E+00 9.183E-04

     total cpu time spent up to now is   102723.4 secs

     total energy              =   -2126.02198832 Ry
     estimated scf accuracy    <          6.6E-10 Ry

     total magnetization       =    19.00 Bohr mag/cell
     absolute magnetization    =    19.05 Bohr mag/cell

     iteration # 33     ecut=   100.00 Ry     beta= 0.40
     Davidson diagonalization with overlap
     ethr =  2.43E-13,  avg # of iterations =  1.0

     negative rho (up, down):  0.000E+00 9.183E-04

     Magnetic moment per site:
     atom:    1    charge:    7.8833    magn:    0.0011    constr:    0.0000
     atom:    2    charge:   12.9591    magn:    3.6335    constr:    0.0000
     atom:    3    charge:   12.9595    magn:    3.6355    constr:    0.0000
     atom:    4    charge:   12.9617    magn:    3.6321    constr:    0.0000
     atom:    5    charge:   12.9523    magn:    3.6476    constr:    0.0000
     atom:    6    charge:    0.8458    magn:    0.0097    constr:    0.0000
     atom:    7    charge:    0.8361    magn:    0.0112    constr:    0.0000
     atom:    8    charge:    0.8468    magn:    0.0096    constr:    0.0000
     atom:    9    charge:    0.8342    magn:    0.0108    constr:    0.0000
     atom:   10    charge:    4.2404    magn:    0.1635    constr:    0.0000
     atom:   11    charge:    4.2553    magn:    0.1091    constr:    0.0000
     atom:   12    charge:    4.2392    magn:    0.1430    constr:    0.0000
     atom:   13    charge:    4.2545    magn:    0.1130    constr:    0.0000
     atom:   14    charge:    4.2343    magn:    0.1182    constr:    0.0000
     atom:   15    charge:    4.2434    magn:    0.0903    constr:    0.0000
     atom:   16    charge:    4.2371    magn:    0.1230    constr:    0.0000
     atom:   17    charge:    4.2512    magn:    0.0925    constr:    0.0000
     atom:   18    charge:    4.2519    magn:    0.1287    constr:    0.0000
     atom:   19    charge:    4.2433    magn:    0.1448    constr:    0.0000
     atom:   20    charge:    4.2485    magn:    0.1286    constr:    0.0000
     atom:   21    charge:    4.2537    magn:    0.1550    constr:    0.0000
     atom:   22    charge:    4.2565    magn:    0.1279    constr:    0.0000
     atom:   23    charge:    4.2429    magn:    0.1435    constr:    0.0000
     atom:   24    charge:    4.2506    magn:    0.1130    constr:    0.0000
     atom:   25    charge:    4.2581    magn:    0.1584    constr:    0.0000

     total cpu time spent up to now is   105422.0 secs

     End of self-consistent calculation

 ------ SPIN UP ------------


          k = 0.0000 0.0000 0.0000 ( 37059 PWs)   bands (ev):

   -85.3702 -85.3285 -85.2364 -85.2107 -51.4716 -51.4627 -51.4617 -51.4430
   -51.3584 -51.3273 -51.2765 -51.2106 -51.1773 -51.1458 -51.0593 -51.0201
   -44.9790 -17.0726 -16.9773 -16.9505 -16.3653 -16.1592 -16.1207 -15.8911
   -13.9903 -13.8959 -13.8793 -13.8034 -13.7387 -13.6740 -13.5933 -13.5193
   -13.4747 -13.4389 -13.4080 -13.3464  -4.5051  -4.1641  -3.6987  -3.5825
    -2.4003  -2.3329  -1.9701  -1.8684  -1.6079  -1.4934  -1.4159  -1.3243
    -1.2442  -1.1321  -1.0513  -0.9480  -0.3914  -0.3269  -0.0340   0.1510
     0.1664   0.2469   0.3198   0.4215   0.6069   0.6174   0.7566   0.8553
     1.0248   1.1336   1.1673   1.2495   1.4058   1.4150   1.6110   1.6837
     1.8223   1.8657   1.9336   2.0375   2.1114   2.1428   2.2137   2.2368
     2.3401   2.5771   2.6580   2.7178   2.8270   2.8498   2.9228   3.0768
     3.1214   3.3073   3.3759   3.4313   3.5678   3.6384   3.6999   3.7905
     3.8600   3.8845   3.9629   4.0272   4.1658   4.2389   4.5732   4.6402
     8.7038  10.5604  10.9749  11.4445  11.8162  12.7631  12.7957  12.9116
    12.9931  13.1196

     occupation numbers 
     1.0000   1.0000   1.0000   1.0000   1.0000   1.0000   1.0000   1.0000
     1.0000   1.0000   1.0000   1.0000   1.0000   1.0000   1.0000   1.0000
     1.0000   1.0000   1.0000   1.0000   1.0000   1.0000   1.0000   1.0000
     1.0000   1.0000   1.0000   1.0000   1.0000   1.0000   1.0000   1.0000
     1.0000   1.0000   1.0000   1.0000   1.0000   1.0000   1.0000   1.0000
     1.0000   1.0000   1.0000   1.0000   1.0000   1.0000   1.0000   1.0000
     1.0000   1.0000   1.0000   1.0000   1.0000   1.0000   1.0000   1.0000
     1.0000   1.0000   1.0000   1.0000   1.0000   1.0000   1.0000   1.0000
     1.0000   1.0000   1.0000   1.0000   1.0000   1.0000   1.0000   1.0000
     1.0000   1.0000   1.0000   1.0000   1.0000   1.0000   1.0000   1.0000
     1.0000   1.0000   1.0000   1.0000   1.0000   1.0000   1.0000   1.0000
     1.0000   1.0000   1.0000   1.0000   1.0000   1.0000   1.0000   1.0000
     1.0000   1.0000   1.0000   1.0000   1.0000   1.0000   1.0000   1.0000
     0.0000   0.0000   0.0000   0.0000   0.0000   0.0000   0.0000   0.0000
     0.0000   0.0000

          k = 0.0000 0.0000 0.2376 ( 37071 PWs)   bands (ev):

   -85.3702 -85.3285 -85.2364 -85.2107 -51.4716 -51.4627 -51.4617 -51.4430
   -51.3584 -51.3273 -51.2765 -51.2106 -51.1773 -51.1458 -51.0593 -51.0201
   -44.9790 -17.0720 -16.9773 -16.9529 -16.3507 -16.1527 -16.1105 -15.8920
   -14.0028 -13.9210 -13.8672 -13.8063 -13.7409 -13.6741 -13.6041 -13.5223
   -13.4807 -13.4420 -13.4070 -13.3481  -4.4755  -4.1509  -3.7089  -3.5569
    -2.3828  -2.3118  -1.9740  -1.8591  -1.6024  -1.4910  -1.3884  -1.3354
    -1.2148  -1.1459  -1.0859  -0.9248  -0.3849  -0.3157  -0.0291   0.1119
     0.1702   0.2413   0.3475   0.3961   0.5993   0.6622   0.7541   0.8235
     0.9846   1.1385   1.1734   1.2804   1.3503   1.4890   1.5984   1.6902
     1.7903   1.8727   1.9590   2.0309   2.0603   2.0991   2.2104   2.2727
     2.3446   2.5725   2.6587   2.6851   2.8080   2.8234   2.9370   3.0412
     3.1137   3.3221   3.3877   3.4286   3.5315   3.6357   3.7095   3.7743
     3.8331   3.8874   3.9640   4.0489   4.1606   4.2506   4.5602   4.6513
     8.8460  10.6239  11.0245  11.4696  11.8604  12.6363  12.8311  12.9073
    12.9626  13.0754

     occupation numbers 
     1.0000   1.0000   1.0000   1.0000   1.0000   1.0000   1.0000   1.0000
     1.0000   1.0000   1.0000   1.0000   1.0000   1.0000   1.0000   1.0000
     1.0000   1.0000   1.0000   1.0000   1.0000   1.0000   1.0000   1.0000
     1.0000   1.0000   1.0000   1.0000   1.0000   1.0000   1.0000   1.0000
     1.0000   1.0000   1.0000   1.0000   1.0000   1.0000   1.0000   1.0000
     1.0000   1.0000   1.0000   1.0000   1.0000   1.0000   1.0000   1.0000
     1.0000   1.0000   1.0000   1.0000   1.0000   1.0000   1.0000   1.0000
     1.0000   1.0000   1.0000   1.0000   1.0000   1.0000   1.0000   1.0000
     1.0000   1.0000   1.0000   1.0000   1.0000   1.0000   1.0000   1.0000
     1.0000   1.0000   1.0000   1.0000   1.0000   1.0000   1.0000   1.0000
     1.0000   1.0000   1.0000   1.0000   1.0000   1.0000   1.0000   1.0000
     1.0000   1.0000   1.0000   1.0000   1.0000   1.0000   1.0000   1.0000
     1.0000   1.0000   1.0000   1.0000   1.0000   1.0000   1.0000   1.0000
     0.0000   0.0000   0.0000   0.0000   0.0000   0.0000   0.0000   0.0000
     0.0000   0.0000

          k = 0.0000 0.0000 0.4753 ( 37078 PWs)   bands (ev):

   -85.3702 -85.3285 -85.2364 -85.2107 -51.4716 -51.4627 -51.4617 -51.4430
   -51.3584 -51.3273 -51.2765 -51.2106 -51.1773 -51.1458 -51.0593 -51.0201
   -44.9790 -17.0704 -16.9774 -16.9586 -16.3120 -16.1349 -16.0843 -15.8969
   -14.0363 -13.9649 -13.8570 -13.8125 -13.7528 -13.6836 -13.6086 -13.5336
   -13.4900 -13.4535 -13.4063 -13.3551  -4.3983  -4.1161  -3.7154  -3.5201
    -2.3593  -2.2382  -1.9530  -1.8540  -1.5960  -1.4765  -1.3948  -1.2792
    -1.1928  -1.1679  -1.1037  -0.9177  -0.3885  -0.2732  -0.0010   0.0753
     0.1659   0.2323   0.3302   0.4455   0.6161   0.6735   0.7366   0.8093
     0.9621   1.1178   1.1801   1.2664   1.3721   1.4732   1.6089   1.6618
     1.7108   1.8357   1.9458   1.9945   2.0400   2.1016   2.2119   2.2623
     2.3730   2.5317   2.5689   2.6637   2.6938   2.8198   2.9805   3.0380
     3.1086   3.3417   3.3765   3.4215   3.4848   3.6440   3.6897   3.7832
     3.8021   3.8854   3.9434   4.0944   4.1454   4.2726   4.5466   4.6621
     9.2272  10.7858  11.1315  11.5426  11.9724  12.3549  12.7917  12.8347
    12.9125  13.0182

     occupation numbers 
     1.0000   1.0000   1.0000   1.0000   1.0000   1.0000   1.0000   1.0000
     1.0000   1.0000   1.0000   1.0000   1.0000   1.0000   1.0000   1.0000
     1.0000   1.0000   1.0000   1.0000   1.0000   1.0000   1.0000   1.0000
     1.0000   1.0000   1.0000   1.0000   1.0000   1.0000   1.0000   1.0000
     1.0000   1.0000   1.0000   1.0000   1.0000   1.0000   1.0000   1.0000
     1.0000   1.0000   1.0000   1.0000   1.0000   1.0000   1.0000   1.0000
     1.0000   1.0000   1.0000   1.0000   1.0000   1.0000   1.0000   1.0000
     1.0000   1.0000   1.0000   1.0000   1.0000   1.0000   1.0000   1.0000
     1.0000   1.0000   1.0000   1.0000   1.0000   1.0000   1.0000   1.0000
     1.0000   1.0000   1.0000   1.0000   1.0000   1.0000   1.0000   1.0000
     1.0000   1.0000   1.0000   1.0000   1.0000   1.0000   1.0000   1.0000
     1.0000   1.0000   1.0000   1.0000   1.0000   1.0000   1.0000   1.0000
     1.0000   1.0000   1.0000   1.0000   1.0000   1.0000   1.0000   1.0000
     0.0000   0.0000   0.0000   0.0000   0.0000   0.0000   0.0000   0.0000
     0.0000   0.0000

          k = 0.0000 0.0000 0.7129 ( 37102 PWs)   bands (ev):

   -85.3702 -85.3285 -85.2364 -85.2107 -51.4716 -51.4627 -51.4617 -51.4430
   -51.3584 -51.3273 -51.2765 -51.2106 -51.1773 -51.1458 -51.0593 -51.0201
   -44.9790 -17.0685 -16.9778 -16.9644 -16.2645 -16.1111 -16.0526 -15.9096
   -14.0755 -14.0124 -13.8496 -13.8195 -13.7753 -13.7064 -13.5845 -13.5450
   -13.4959 -13.4682 -13.4120 -13.3679  -4.3063  -4.0729  -3.7079  -3.5095
    -2.3353  -2.1578  -1.8995  -1.8434  -1.6053  -1.4719  -1.4160  -1.2521
    -1.1832  -1.1442  -1.0707  -0.9511  -0.4043  -0.2232   0.0531   0.1256
     0.1382   0.2537   0.3555   0.4890   0.6206   0.6926   0.7598   0.7841
     0.9871   1.0776   1.1600   1.2050   1.3646   1.3969   1.4914   1.5916
     1.6881   1.7376   1.9178   1.9673   2.0697   2.1419   2.1825   2.2338
     2.3926   2.4453   2.4676   2.5363   2.7133   2.8669   3.0155   3.0634
     3.1404   3.3091   3.3494   3.4234   3.4847   3.6671   3.6951   3.7627
     3.8079   3.8748   3.9125   4.1118   4.1389   4.2951   4.5523   4.6566
     9.7482  10.9520  11.2136  11.6442  11.8209  12.3443  12.6491  12.6875
    12.8211  12.9862

     occupation numbers 
     1.0000   1.0000   1.0000   1.0000   1.0000   1.0000   1.0000   1.0000
     1.0000   1.0000   1.0000   1.0000   1.0000   1.0000   1.0000   1.0000
     1.0000   1.0000   1.0000   1.0000   1.0000   1.0000   1.0000   1.0000
     1.0000   1.0000   1.0000   1.0000   1.0000   1.0000   1.0000   1.0000
     1.0000   1.0000   1.0000   1.0000   1.0000   1.0000   1.0000   1.0000
     1.0000   1.0000   1.0000   1.0000   1.0000   1.0000   1.0000   1.0000
     1.0000   1.0000   1.0000   1.0000   1.0000   1.0000   1.0000   1.0000
     1.0000   1.0000   1.0000   1.0000   1.0000   1.0000   1.0000   1.0000
     1.0000   1.0000   1.0000   1.0000   1.0000   1.0000   1.0000   1.0000
     1.0000   1.0000   1.0000   1.0000   1.0000   1.0000   1.0000   1.0000
     1.0000   1.0000   1.0000   1.0000   1.0000   1.0000   1.0000   1.0000
     1.0000   1.0000   1.0000   1.0000   1.0000   1.0000   1.0000   1.0000
     1.0000   1.0000   1.0000   1.0000   1.0000   1.0000   1.0000   1.0000
     0.0000   0.0000   0.0000   0.0000   0.0000   0.0000   0.0000   0.0000
     0.0000   0.0000

          k = 0.0000 0.0000 0.9505 ( 37140 PWs)   bands (ev):

   -85.3702 -85.3285 -85.2364 -85.2107 -51.4716 -51.4627 -51.4618 -51.4430
   -51.3584 -51.3273 -51.2765 -51.2106 -51.1773 -51.1458 -51.0593 -51.0201
   -44.9790 -17.0672 -16.9785 -16.9677 -16.2313 -16.0919 -16.0290 -15.9258
   -14.1006 -14.0441 -13.8448 -13.8246 -13.7958 -13.7207 -13.5656 -13.5424
   -13.4980 -13.4754 -13.4273 -13.3770  -4.2433  -4.0418  -3.6950  -3.5209
    -2.3122  -2.1184  -1.8749  -1.7963  -1.6307  -1.4883  -1.4190  -1.2644
    -1.1638  -1.0976  -1.0579  -0.9807  -0.4157  -0.1828   0.0733   0.0928
     0.2533   0.2998   0.4743   0.5172   0.5933   0.7076   0.7185   0.8375
     0.9858   1.0108   1.1003   1.1424   1.2645   1.3032   1.4380   1.6044
     1.6449   1.7437   1.8281   1.9337   2.0584   2.0980   2.1849   2.3025
     2.3720   2.3960   2.4148   2.5268   2.7043   2.9021   3.0233   3.1026
     3.1530   3.2548   3.3381   3.4621   3.5435   3.6524   3.7021   3.7328
     3.8022   3.8541   3.9179   4.0956   4.1522   4.3090   4.5721   4.6388
    10.2846  10.8804  11.2645  11.5435  11.7454  12.5196  12.5522  12.6293
    12.7712  12.8830

     occupation numbers 
     1.0000   1.0000   1.0000   1.0000   1.0000   1.0000   1.0000   1.0000
     1.0000   1.0000   1.0000   1.0000   1.0000   1.0000   1.0000   1.0000
     1.0000   1.0000   1.0000   1.0000   1.0000   1.0000   1.0000   1.0000
     1.0000   1.0000   1.0000   1.0000   1.0000   1.0000   1.0000   1.0000
     1.0000   1.0000   1.0000   1.0000   1.0000   1.0000   1.0000   1.0000
     1.0000   1.0000   1.0000   1.0000   1.0000   1.0000   1.0000   1.0000
     1.0000   1.0000   1.0000   1.0000   1.0000   1.0000   1.0000   1.0000
     1.0000   1.0000   1.0000   1.0000   1.0000   1.0000   1.0000   1.0000
     1.0000   1.0000   1.0000   1.0000   1.0000   1.0000   1.0000   1.0000
     1.0000   1.0000   1.0000   1.0000   1.0000   1.0000   1.0000   1.0000
     1.0000   1.0000   1.0000   1.0000   1.0000   1.0000   1.0000   1.0000
     1.0000   1.0000   1.0000   1.0000   1.0000   1.0000   1.0000   1.0000
     1.0000   1.0000   1.0000   1.0000   1.0000   1.0000   1.0000   1.0000
     0.0000   0.0000   0.0000   0.0000   0.0000   0.0000   0.0000   0.0000
     0.0000   0.0000

          k = 0.0000 0.2430 0.0000 ( 37033 PWs)   bands (ev):

   -85.3702 -85.3285 -85.2364 -85.2107 -51.4716 -51.4627 -51.4617 -51.4430
   -51.3584 -51.3273 -51.2765 -51.2106 -51.1773 -51.1458 -51.0593 -51.0201
   -44.9790 -17.0769 -16.9796 -16.9503 -16.3456 -16.1555 -16.1121 -15.9046
   -14.0109 -13.8967 -13.8753 -13.8002 -13.7702 -13.6702 -13.5916 -13.5132
   -13.4736 -13.4388 -13.4030 -13.3424  -4.4652  -4.1266  -3.7118  -3.5805
    -2.3812  -2.2975  -1.9574  -1.8579  -1.6164  -1.5128  -1.4096  -1.2982
    -1.2486  -1.1337  -1.0554  -0.9255  -0.3999  -0.3476  -0.0498   0.0533
     0.1960   0.2361   0.3325   0.3667   0.5872   0.6447   0.7968   0.8566
     1.0378   1.0992   1.1557   1.2438   1.4132   1.4456   1.5973   1.6503
     1.7906   1.8128   1.9549   1.9925   2.0577   2.1393   2.1913   2.2986
     2.3724   2.5600   2.6280   2.6943   2.7848   2.8622   2.9699   3.0926
     3.1367   3.2412   3.3348   3.5049   3.5275   3.6060   3.6949   3.7638
     3.8254   3.8764   3.9398   4.0423   4.2657   4.3222   4.6140   4.6600
     8.8606  10.6311  11.0677  11.3682  11.8438  12.6403  12.7514  12.8497
    12.9491  13.0917

     occupation numbers 
     1.0000   1.0000   1.0000   1.0000   1.0000   1.0000   1.0000   1.0000
     1.0000   1.0000   1.0000   1.0000   1.0000   1.0000   1.0000   1.0000
     1.0000   1.0000   1.0000   1.0000   1.0000   1.0000   1.0000   1.0000
     1.0000   1.0000   1.0000   1.0000   1.0000   1.0000   1.0000   1.0000
     1.0000   1.0000   1.0000   1.0000   1.0000   1.0000   1.0000   1.0000
     1.0000   1.0000   1.0000   1.0000   1.0000   1.0000   1.0000   1.0000
     1.0000   1.0000   1.0000   1.0000   1.0000   1.0000   1.0000   1.0000
     1.0000   1.0000   1.0000   1.0000   1.0000   1.0000   1.0000   1.0000
     1.0000   1.0000   1.0000   1.0000   1.0000   1.0000   1.0000   1.0000
     1.0000   1.0000   1.0000   1.0000   1.0000   1.0000   1.0000   1.0000
     1.0000   1.0000   1.0000   1.0000   1.0000   1.0000   1.0000   1.0000
     1.0000   1.0000   1.0000   1.0000   1.0000   1.0000   1.0000   1.0000
     1.0000   1.0000   1.0000   1.0000   1.0000   1.0000   1.0000   1.0000
     0.0000   0.0000   0.0000   0.0000   0.0000   0.0000   0.0000   0.0000
     0.0000   0.0000

          k = 0.0000 0.2430 0.2376 ( 37055 PWs)   bands (ev):

   -85.3702 -85.3285 -85.2364 -85.2107 -51.4716 -51.4627 -51.4617 -51.4430
   -51.3584 -51.3273 -51.2765 -51.2106 -51.1773 -51.1458 -51.0593 -51.0201
   -44.9790 -17.0768 -16.9798 -16.9524 -16.3324 -16.1402 -16.1081 -15.9053
   -14.0230 -13.9262 -13.8599 -13.8034 -13.7690 -13.6805 -13.5947 -13.5196
   -13.4802 -13.4421 -13.4005 -13.3422  -4.4419  -4.1200  -3.7117  -3.5419
    -2.3654  -2.2790  -1.9785  -1.8369  -1.6017  -1.4988  -1.3993  -1.3053
    -1.2426  -1.1426  -1.0966  -0.8835  -0.3892  -0.3349  -0.0298   0.0689
     0.1749   0.2484   0.3344   0.4108   0.5357   0.6306   0.7669   0.8221
     0.9458   1.1154   1.1516   1.2320   1.3732   1.5111   1.5983   1.6558
     1.7928   1.8986   1.9241   1.9880   2.0406   2.1264   2.2400   2.2974
     2.3754   2.5573   2.6054   2.6872   2.7635   2.8326   2.9600   3.0353
     3.1127   3.2344   3.3379   3.4919   3.5324   3.6124   3.6760   3.7666
     3.8128   3.8678   3.9803   4.0514   4.2759   4.3235   4.5753   4.6885
     8.9918  10.6969  11.1149  11.3858  11.9180  12.6013  12.7365  12.8378
    12.9317  13.0631

     occupation numbers 
     1.0000   1.0000   1.0000   1.0000   1.0000   1.0000   1.0000   1.0000
     1.0000   1.0000   1.0000   1.0000   1.0000   1.0000   1.0000   1.0000
     1.0000   1.0000   1.0000   1.0000   1.0000   1.0000   1.0000   1.0000
     1.0000   1.0000   1.0000   1.0000   1.0000   1.0000   1.0000   1.0000
     1.0000   1.0000   1.0000   1.0000   1.0000   1.0000   1.0000   1.0000
     1.0000   1.0000   1.0000   1.0000   1.0000   1.0000   1.0000   1.0000
     1.0000   1.0000   1.0000   1.0000   1.0000   1.0000   1.0000   1.0000
     1.0000   1.0000   1.0000   1.0000   1.0000   1.0000   1.0000   1.0000
     1.0000   1.0000   1.0000   1.0000   1.0000   1.0000   1.0000   1.0000
     1.0000   1.0000   1.0000   1.0000   1.0000   1.0000   1.0000   1.0000
     1.0000   1.0000   1.0000   1.0000   1.0000   1.0000   1.0000   1.0000
     1.0000   1.0000   1.0000   1.0000   1.0000   1.0000   1.0000   1.0000
     1.0000   1.0000   1.0000   1.0000   1.0000   1.0000   1.0000   1.0000
     0.0000   0.0000   0.0000   0.0000   0.0000   0.0000   0.0000   0.0000
     0.0000   0.0000

          k = 0.0000 0.2430 0.4753 ( 37078 PWs)   bands (ev):

   -85.3702 -85.3285 -85.2364 -85.2107 -51.4716 -51.4627 -51.4617 -51.4430
   -51.3584 -51.3273 -51.2765 -51.2106 -51.1773 -51.1458 -51.0593 -51.0201
   -44.9790 -17.0750 -16.9798 -16.9579 -16.2965 -16.1144 -16.0880 -15.9085
   -14.0531 -13.9636 -13.8624 -13.8182 -13.7681 -13.6926 -13.6023 -13.5323
   -13.4868 -13.4514 -13.3995 -13.3502  -4.3695  -4.0905  -3.7080  -3.4889
    -2.3427  -2.2283  -1.9519  -1.8302  -1.5985  -1.4880  -1.3621  -1.3058
    -1.1959  -1.1624  -1.1181  -0.8775  -0.4074  -0.2889   0.0085   0.0910
     0.1495   0.2558   0.3357   0.4124   0.5570   0.6219   0.7182   0.8343
     0.8798   1.0893   1.1367   1.2379   1.3422   1.4979   1.5993   1.6533
     1.7575   1.8620   1.9329   1.9658   2.0774   2.1272   2.2553   2.2986
     2.3511   2.4915   2.5774   2.6287   2.7122   2.7746   2.9753   2.9974
     3.1087   3.2220   3.3391   3.4370   3.5496   3.6163   3.6645   3.7848
     3.7892   3.8655   3.9953   4.0887   4.2831   4.3159   4.5525   4.7066
     9.3520  10.8586  11.2142  11.4624  12.0457  12.4025  12.7266  12.7546
    12.9013  12.9678

     occupation numbers 
     1.0000   1.0000   1.0000   1.0000   1.0000   1.0000   1.0000   1.0000
     1.0000   1.0000   1.0000   1.0000   1.0000   1.0000   1.0000   1.0000
     1.0000   1.0000   1.0000   1.0000   1.0000   1.0000   1.0000   1.0000
     1.0000   1.0000   1.0000   1.0000   1.0000   1.0000   1.0000   1.0000
     1.0000   1.0000   1.0000   1.0000   1.0000   1.0000   1.0000   1.0000
     1.0000   1.0000   1.0000   1.0000   1.0000   1.0000   1.0000   1.0000
     1.0000   1.0000   1.0000   1.0000   1.0000   1.0000   1.0000   1.0000
     1.0000   1.0000   1.0000   1.0000   1.0000   1.0000   1.0000   1.0000
     1.0000   1.0000   1.0000   1.0000   1.0000   1.0000   1.0000   1.0000
     1.0000   1.0000   1.0000   1.0000   1.0000   1.0000   1.0000   1.0000
     1.0000   1.0000   1.0000   1.0000   1.0000   1.0000   1.0000   1.0000
     1.0000   1.0000   1.0000   1.0000   1.0000   1.0000   1.0000   1.0000
     1.0000   1.0000   1.0000   1.0000   1.0000   1.0000   1.0000   1.0000
     0.0000   0.0000   0.0000   0.0000   0.0000   0.0000   0.0000   0.0000
     0.0000   0.0000

          k = 0.0000 0.2430 0.7129 ( 37105 PWs)   bands (ev):

   -85.3702 -85.3285 -85.2364 -85.2107 -51.4716 -51.4627 -51.4618 -51.4430
   -51.3584 -51.3273 -51.2765 -51.2106 -51.1773 -51.1458 -51.0593 -51.0201
   -44.9790 -17.0725 -16.9800 -16.9639 -16.2521 -16.0885 -16.0583 -15.9183
   -14.0880 -14.0073 -13.8685 -13.8328 -13.7792 -13.7077 -13.5875 -13.5452
   -13.4901 -13.4631 -13.4053 -13.3648  -4.2774  -4.0495  -3.6979  -3.4648
    -2.3282  -2.1617  -1.8889  -1.8211  -1.6056  -1.5006  -1.3713  -1.2796
    -1.1681  -1.1338  -1.0877  -0.9267  -0.4277  -0.2514   0.0536   0.1420
     0.1806   0.2535   0.3361   0.4051   0.6186   0.6429   0.7141   0.8395
     0.9085   1.0436   1.1009   1.1914   1.3351   1.4366   1.4736   1.6221
     1.6845   1.7689   1.9177   1.9711   2.0752   2.1766   2.2010   2.2446
     2.3914   2.4284   2.4874   2.5520   2.6689   2.8179   2.9785   3.0569
     3.1100   3.2178   3.3202   3.4268   3.5493   3.6010   3.6587   3.7884
     3.8048   3.8597   3.9848   4.1293   4.2550   4.3260   4.5644   4.7041
     9.8480  11.0398  11.2647  11.5815  11.8950  12.4202  12.6038  12.7068
    12.7708  13.0040

     occupation numbers 
     1.0000   1.0000   1.0000   1.0000   1.0000   1.0000   1.0000   1.0000
     1.0000   1.0000   1.0000   1.0000   1.0000   1.0000   1.0000   1.0000
     1.0000   1.0000   1.0000   1.0000   1.0000   1.0000   1.0000   1.0000
     1.0000   1.0000   1.0000   1.0000   1.0000   1.0000   1.0000   1.0000
     1.0000   1.0000   1.0000   1.0000   1.0000   1.0000   1.0000   1.0000
     1.0000   1.0000   1.0000   1.0000   1.0000   1.0000   1.0000   1.0000
     1.0000   1.0000   1.0000   1.0000   1.0000   1.0000   1.0000   1.0000
     1.0000   1.0000   1.0000   1.0000   1.0000   1.0000   1.0000   1.0000
     1.0000   1.0000   1.0000   1.0000   1.0000   1.0000   1.0000   1.0000
     1.0000   1.0000   1.0000   1.0000   1.0000   1.0000   1.0000   1.0000
     1.0000   1.0000   1.0000   1.0000   1.0000   1.0000   1.0000   1.0000
     1.0000   1.0000   1.0000   1.0000   1.0000   1.0000   1.0000   1.0000
     1.0000   1.0000   1.0000   1.0000   1.0000   1.0000   1.0000   1.0000
     0.0000   0.0000   0.0000   0.0000   0.0000   0.0000   0.0000   0.0000
     0.0000   0.0000

          k = 0.0000 0.2430 0.9505 ( 37114 PWs)   bands (ev):

   -85.3702 -85.3285 -85.2364 -85.2107 -51.4716 -51.4627 -51.4618 -51.4430
   -51.3584 -51.3273 -51.2765 -51.2106 -51.1773 -51.1458 -51.0593 -51.0201
   -44.9790 -17.0702 -16.9801 -16.9677 -16.2197 -16.0750 -16.0329 -15.9306
   -14.1107 -14.0393 -13.8668 -13.8394 -13.7930 -13.7252 -13.5673 -13.5445
   -13.4909 -13.4698 -13.4226 -13.3741  -4.2062  -4.0131  -3.6901  -3.4852
    -2.3037  -2.1225  -1.8560  -1.7870  -1.6244  -1.5088  -1.4044  -1.2760
    -1.1464  -1.0848  -1.0488  -0.9800  -0.4476  -0.2217   0.0677   0.1365
     0.2261   0.2829   0.3726   0.4825   0.6437   0.6919   0.7397   0.8224
     0.9756   0.9967   1.0517   1.1350   1.2457   1.3131   1.4435   1.5970
     1.6622   1.7566   1.8106   1.9073   2.0747   2.1262   2.2059   2.2675
     2.3893   2.3962   2.4465   2.5103   2.6670   2.8789   3.0079   3.0759
     3.1145   3.1943   3.3337   3.4476   3.5224   3.6185   3.6663   3.7714
     3.8070   3.8531   3.9758   4.1433   4.2145   4.3566   4.5877   4.6898
    10.3533  11.0084  11.2574  11.6397  11.7197  12.4786  12.5346  12.6991
    12.7752  12.9251

     occupation numbers 
     1.0000   1.0000   1.0000   1.0000   1.0000   1.0000   1.0000   1.0000
     1.0000   1.0000   1.0000   1.0000   1.0000   1.0000   1.0000   1.0000
     1.0000   1.0000   1.0000   1.0000   1.0000   1.0000   1.0000   1.0000
     1.0000   1.0000   1.0000   1.0000   1.0000   1.0000   1.0000   1.0000
     1.0000   1.0000   1.0000   1.0000   1.0000   1.0000   1.0000   1.0000
     1.0000   1.0000   1.0000   1.0000   1.0000   1.0000   1.0000   1.0000
     1.0000   1.0000   1.0000   1.0000   1.0000   1.0000   1.0000   1.0000
     1.0000   1.0000   1.0000   1.0000   1.0000   1.0000   1.0000   1.0000
     1.0000   1.0000   1.0000   1.0000   1.0000   1.0000   1.0000   1.0000
     1.0000   1.0000   1.0000   1.0000   1.0000   1.0000   1.0000   1.0000
     1.0000   1.0000   1.0000   1.0000   1.0000   1.0000   1.0000   1.0000
     1.0000   1.0000   1.0000   1.0000   1.0000   1.0000   1.0000   1.0000
     1.0000   1.0000   1.0000   1.0000   1.0000   1.0000   1.0000   1.0000
     0.0000   0.0000   0.0000   0.0000   0.0000   0.0000   0.0000   0.0000
     0.0000   0.0000

          k = 0.0000 0.4861 0.0000 ( 37055 PWs)   bands (ev):

   -85.3702 -85.3285 -85.2364 -85.2107 -51.4716 -51.4627 -51.4617 -51.4430
   -51.3584 -51.3273 -51.2765 -51.2106 -51.1773 -51.1458 -51.0593 -51.0201
   -44.9790 -17.0870 -16.9837 -16.9500 -16.2963 -16.1489 -16.0906 -15.9407
   -14.0463 -13.9128 -13.8639 -13.8307 -13.7798 -13.6839 -13.5821 -13.5058
   -13.4728 -13.4359 -13.3918 -13.3340  -4.3720  -4.0368  -3.7426  -3.5855
    -2.3219  -2.1979  -1.9307  -1.8290  -1.6368  -1.5505  -1.3919  -1.2786
    -1.2498  -1.1303  -1.0445  -0.8970  -0.4663  -0.3705  -0.1273  -0.0478
     0.1631   0.2233   0.2488   0.3930   0.5227   0.6159   0.8588   0.9085
     1.0424   1.0817   1.1545   1.2318   1.4239   1.4948   1.5369   1.6304
     1.7526   1.7947   1.8769   1.9425   1.9995   2.1485   2.1956   2.3530
     2.4088   2.5181   2.5691   2.6588   2.7667   2.7958   2.9816   3.0801
     3.1185   3.2026   3.3382   3.4565   3.5102   3.6055   3.6841   3.7405
     3.8187   3.8810   3.9182   4.0323   4.3965   4.4519   4.6655   4.7678
     9.2834  10.7831  11.0944  11.3516  11.8023  12.4606  12.6412  12.7844
    12.9143  13.0838

     occupation numbers 
     1.0000   1.0000   1.0000   1.0000   1.0000   1.0000   1.0000   1.0000
     1.0000   1.0000   1.0000   1.0000   1.0000   1.0000   1.0000   1.0000
     1.0000   1.0000   1.0000   1.0000   1.0000   1.0000   1.0000   1.0000
[...]
     atom    6 type  4   force =    -0.02799592    0.05576974    0.04575891
     atom    7 type  4   force =    -0.00330931    0.00472356   -0.07210096
     atom    8 type  4   force =     0.02703308   -0.07655919   -0.05078932
     atom    9 type  4   force =     0.00893608   -0.01527679    0.07370228
     atom   10 type  3   force =    -0.56286548   -0.28123820   -1.03924102
     atom   11 type  3   force =    -0.02081109    0.22259826   -1.47978252
     atom   12 type  3   force =     0.60719515    0.22140678    1.02569548
     atom   13 type  3   force =     0.03801846   -0.22568441    1.48131623
     atom   14 type  3   force =     1.40941574   -0.22000567   -0.58939025
     atom   15 type  3   force =    -1.31823336    0.49528042   -0.12792692
     atom   16 type  3   force =    -1.38514273    0.22185640    0.64299868
     atom   17 type  3   force =     1.29032177   -0.39364986    0.05168168
     atom   18 type  3   force =    -0.12607269   -1.32043962    0.86887211
     atom   19 type  3   force =     0.63874275    0.68120153    0.91400062
     atom   20 type  3   force =    -0.01958527   -1.65664590   -0.95704984
     atom   21 type  3   force =    -0.12793110    0.96600139   -0.60065364
     atom   22 type  3   force =     0.14414131    1.34819595   -0.79335090
     atom   23 type  3   force =    -0.65151580   -0.65605322   -0.93776577
     atom   24 type  3   force =    -0.02240413    1.56271449    0.97557640
     atom   25 type  3   force =     0.09169758   -1.03588961    0.59558160
     The ionic contribution  to forces
     atom    1 type  2   force =     1.32130544   -2.96733156   -1.94740004
     atom    2 type  1   force =     8.73574006    5.30505383   -1.76981545
     atom    3 type  1   force =     5.15015737   -9.39862272   -1.95966847
     atom    4 type  1   force =   -11.26443167   -4.35387137    1.43381384
     atom    5 type  1   force =    -3.97020704   10.48181206    3.08615287
     atom    6 type  4   force =    -1.79871920    2.59719961   -1.32114168
     atom    7 type  4   force =     3.87112659   -0.96782260    1.19063047
     atom    8 type  4   force =     1.89064439   -2.40495357    1.76760179
     atom    9 type  4   force =    -3.86629224    0.84339982   -1.07698895
     atom   10 type  3   force =    -1.17096859    7.52441365    0.30670648
     atom   11 type  3   force =     7.57108378   -3.72477713    2.34141798
     atom   12 type  3   force =    -0.79251055   -5.85132068    0.81035094
     atom   13 type  3   force =    -7.53720926    3.83030537   -2.41191024
     atom   14 type  3   force =     0.50351562    1.25466550    7.08293881
     atom   15 type  3   force =     0.36865943   -5.12359035    5.09306347
     atom   16 type  3   force =    -0.81455556   -1.33721950   -7.52609653
     atom   17 type  3   force =     0.38821240    3.53319003   -2.62501110
     atom   18 type  3   force =    -4.59680498    7.40059029   -0.29711555
     atom   19 type  3   force =     2.74649104   -1.51214474   -3.54292287
     atom   20 type  3   force =     4.63641359    6.75370612    8.41099774
     atom   21 type  3   force =    -9.06089205   -0.16696829    0.09327634
     atom   22 type  3   force =     4.61883134   -8.44890413   -2.33232434
     atom   23 type  3   force =    -2.92476358    0.43197037    3.83569181
     atom   24 type  3   force =    -3.35209228   -4.72813297   -8.83189789
     atom   25 type  3   force =     9.34726595    1.02935296    0.18965058
     The local contribution  to forces
     atom    1 type  2   force =    -1.37949297    2.98149504    1.88427199
     atom    2 type  1   force =    -8.79903536   -5.20163093    1.92023025
     atom    3 type  1   force =    -5.08670109    9.56054156    1.87288591
     atom    4 type  1   force =    11.29887151    4.24286617   -1.59912429
     atom    5 type  1   force =     3.96049530  -10.61564811   -2.93290373
     atom    6 type  4   force =     1.80577398   -2.63981925    1.28671432
     atom    7 type  4   force =    -3.84136833    0.95804422   -1.12445821
     atom    8 type  4   force =    -1.89666075    2.46340017   -1.72356402
     atom    9 type  4   force =     3.83074024   -0.82445587    1.01204065
     atom   10 type  3   force =     1.72782832   -7.25413106    0.72142827
     atom   11 type  3   force =    -7.55451140    3.50623899   -0.87478177
     atom   12 type  3   force =     0.19440304    5.63447125   -1.82093009
     atom   13 type  3   force =     7.50502374   -3.60982585    0.94542271
     atom   14 type  3   force =    -1.86435783   -1.04056868   -6.50506238
     atom   15 type  3   force =     0.90776660    4.63228707   -4.96389703
     atom   16 type  3   force =     2.15302888    1.12102863    6.89694829
     atom   17 type  3   force =    -1.63776315   -3.14669566    2.57631053
     atom   18 type  3   force =     4.72169351   -6.09610046   -0.56065942
     atom   19 type  3   force =    -3.37468088    0.83995481    2.64142256
     atom   20 type  3   force =    -4.61693454   -5.11292081   -7.46390798
     atom   21 type  3   force =     9.19012261   -0.78986995    0.50572169
     atom   22 type  3   force =    -4.76265051    7.11533281    3.12226127
     atom   23 type  3   force =     3.56545970    0.21552146   -2.90862209
     atom   24 type  3   force =     3.37328144    3.17751929    7.87017056
     atom   25 type  3   force =    -9.43983621   -0.00347972   -0.78098480
     The core correction contribution to forces
     atom    1 type  2   force =     0.00000000    0.00000000    0.00000000
     atom    2 type  1   force =    -0.00251646    0.00064525    0.00045772
     atom    3 type  1   force =     0.00132895   -0.00053276    0.00074765
     atom    4 type  1   force =     0.00233167   -0.00095622   -0.00059516
     atom    5 type  1   force =    -0.00084118    0.00079941   -0.00038732
     atom    6 type  4   force =     0.00357849   -0.00360992   -0.00283449
     atom    7 type  4   force =    -0.00082902    0.00018723    0.00454752
     atom    8 type  4   force =    -0.00361936    0.00507589    0.00317702
     atom    9 type  4   force =     0.00040653    0.00078645   -0.00476389
     atom   10 type  3   force =     0.00472880    0.00252448    0.00904398
     atom   11 type  3   force =     0.00098271   -0.00229878    0.01288880
     atom   12 type  3   force =    -0.00509185   -0.00198415   -0.00900687
     atom   13 type  3   force =    -0.00114812    0.00233578   -0.01296988
     atom   14 type  3   force =    -0.01256077    0.00207854    0.00591891
     atom   15 type  3   force =     0.01155772   -0.00471885    0.00158033
     atom   16 type  3   force =     0.01233418   -0.00207857   -0.00641207
     atom   17 type  3   force =    -0.01127606    0.00381010   -0.00101982
     atom   18 type  3   force =     0.00050117    0.01207548   -0.00753110
     atom   19 type  3   force =    -0.00565936   -0.00567409   -0.00829630
     atom   20 type  3   force =     0.00040349    0.01454040    0.00899100
     atom   21 type  3   force =     0.00100305   -0.00840058    0.00544631
     atom   22 type  3   force =    -0.00067567   -0.01236013    0.00676514
     atom   23 type  3   force =     0.00579802    0.00543517    0.00852557
     atom   24 type  3   force =     0.00001858   -0.01363736   -0.00918406
     atom   25 type  3   force =    -0.00064117    0.00900117   -0.00540615
     The Hubbard contrib.    to forces
     atom    1 type  2   force =     0.00000000    0.00000000    0.00000000
     atom    2 type  1   force =     0.00000000    0.00000000    0.00000000
     atom    3 type  1   force =     0.00000000    0.00000000    0.00000000
     atom    4 type  1   force =     0.00000000    0.00000000    0.00000000
     atom    5 type  1   force =     0.00000000    0.00000000    0.00000000
     atom    6 type  4   force =     0.00000000    0.00000000    0.00000000
     atom    7 type  4   force =     0.00000000    0.00000000    0.00000000
     atom    8 type  4   force =     0.00000000    0.00000000    0.00000000
     atom    9 type  4   force =     0.00000000    0.00000000    0.00000000
     atom   10 type  3   force =     0.00000000    0.00000000    0.00000000
     atom   11 type  3   force =     0.00000000    0.00000000    0.00000000
     atom   12 type  3   force =     0.00000000    0.00000000    0.00000000
     atom   13 type  3   force =     0.00000000    0.00000000    0.00000000
     atom   14 type  3   force =     0.00000000    0.00000000    0.00000000
     atom   15 type  3   force =     0.00000000    0.00000000    0.00000000
     atom   16 type  3   force =     0.00000000    0.00000000    0.00000000
     atom   17 type  3   force =     0.00000000    0.00000000    0.00000000
     atom   18 type  3   force =     0.00000000    0.00000000    0.00000000
     atom   19 type  3   force =     0.00000000    0.00000000    0.00000000
     atom   20 type  3   force =     0.00000000    0.00000000    0.00000000
     atom   21 type  3   force =     0.00000000    0.00000000    0.00000000
     atom   22 type  3   force =     0.00000000    0.00000000    0.00000000
     atom   23 type  3   force =     0.00000000    0.00000000    0.00000000
     atom   24 type  3   force =     0.00000000    0.00000000    0.00000000
     atom   25 type  3   force =     0.00000000    0.00000000    0.00000000
     The SCF correction term to forces
     atom    1 type  2   force =    -0.00000253   -0.00000002    0.00000077
     atom    2 type  1   force =     0.00000199   -0.00000153   -0.00000353
     atom    3 type  1   force =    -0.00000042   -0.00000165    0.00000047
     atom    4 type  1   force =     0.00000243    0.00000091    0.00000174
     atom    5 type  1   force =    -0.00000378    0.00000268   -0.00000157
     atom    6 type  4   force =    -0.00000142   -0.00000104    0.00000107
     atom    7 type  4   force =     0.00000045    0.00000043   -0.00000057
     atom    8 type  4   force =    -0.00000166    0.00000030   -0.00000057
     atom    9 type  4   force =     0.00000318   -0.00000040    0.00000072
     atom   10 type  3   force =    -0.00000087   -0.00000273   -0.00000090
     atom   11 type  3   force =    -0.00000122    0.00000090    0.00000256
     atom   12 type  3   force =    -0.00000180    0.00000325    0.00000024
     atom   13 type  3   force =     0.00000536   -0.00000149   -0.00000352
     atom   14 type  3   force =     0.00000355   -0.00000013    0.00000113
     atom   15 type  3   force =     0.00000123    0.00000021   -0.00000129
     atom   16 type  3   force =     0.00000219    0.00000020   -0.00000071
     atom   17 type  3   force =    -0.00000691   -0.00000025    0.00000208
     atom   18 type  3   force =    -0.00000186    0.00000109    0.00000053
     atom   19 type  3   force =    -0.00000047    0.00000321   -0.00000188
     atom   20 type  3   force =    -0.00000503    0.00000199   -0.00000356
     atom   21 type  3   force =     0.00000393    0.00000221    0.00000301
     atom   22 type  3   force =    -0.00000168   -0.00000104    0.00000019
     atom   23 type  3   force =     0.00000306   -0.00000278    0.00000198
     atom   24 type  3   force =     0.00000033   -0.00000164    0.00000220
     atom   25 type  3   force =    -0.00000027   -0.00000234   -0.00000255

     Total force =     0.097055     Total SCF correction =     0.000019


     Computing stress (Cartesian axis) and pressure


     negative rho (up, down):  0.000E+00 9.183E-04
          total   stress  (Ry/bohr**3)                   (kbar)     P=      -14.75
  -0.00057690   0.00012600  -0.00000858          -84.86       18.54       -1.26
   0.00012600   0.00018144  -0.00004062           18.54       26.69       -5.97
  -0.00000858  -0.00004062   0.00009464           -1.26       -5.97       13.92

     kinetic stress (kbar)  25958.38     93.32    -45.91
                               93.32  26133.67     -1.86
                              -45.91     -1.86  26161.79

     local   stress (kbar)  -8309.97   3895.53  -8197.09
                             3895.53 -14426.09   -575.61
                            -8197.09   -575.61  -5340.73

     nonloc. stress (kbar)  -6634.09      7.32     -7.35
                                7.32  -6610.65    -10.34
                               -7.35    -10.34  -6609.27

     hartree stress (kbar)  14274.48  -1455.77   3456.52
                            -1455.77  17365.41    303.43
                             3456.52    303.43  13505.19

     exc-cor stress (kbar)  -2753.73     -3.51      3.42
                               -3.51  -2757.09     -0.82
                                3.42     -0.82  -2758.09

     corecor stress (kbar)  -3063.30      0.26     -0.34
                                0.26  -3064.26      1.36
                               -0.34      1.36  -3064.22

     ewald   stress (kbar) -19556.62  -2518.62   4789.49
                            -2518.62 -16614.30    277.87
                             4789.49    277.87 -21880.74

     hubbard stress (kbar)      0.00      0.00      0.00
                                0.00      0.00      0.00
                                0.00      0.00      0.00

     DFT-D   stress (kbar)      0.00      0.00      0.00
                                0.00      0.00      0.00
                                0.00      0.00      0.00

     XDM     stress (kbar)      0.00      0.00      0.00
                                0.00      0.00      0.00
                                0.00      0.00      0.00

     dft-nl  stress (kbar)      0.00      0.00      0.00
                                0.00      0.00      0.00
                                0.00      0.00      0.00

     TS-vdW  stress (kbar)      0.00      0.00      0.00
                                0.00      0.00      0.00
                                0.00      0.00      0.00



     init_run     :   1158.95s CPU   1357.54s WALL (       1 calls)
     electrons    :  90010.48s CPU 104027.25s WALL (       1 calls)
     forces       :    147.50s CPU    169.98s WALL (       1 calls)
     stress       :    683.70s CPU    799.01s WALL (       1 calls)

     Called by init_run:
     wfcinit      :   1129.87s CPU   1324.33s WALL (       1 calls)
     wfcinit:atom :      0.79s CPU      0.93s WALL (     316 calls)
     wfcinit:wfcr :   1124.10s CPU   1317.45s WALL (     316 calls)
     potinit      :     10.47s CPU     12.74s WALL (       1 calls)
     hinit0       :     11.93s CPU     12.40s WALL (       1 calls)

     Called by electrons:
     c_bands      :  75244.88s CPU  86913.71s WALL (      33 calls)
     sum_band     :  14513.86s CPU  16814.78s WALL (      33 calls)
     v_of_rho     :     87.02s CPU    102.22s WALL (      34 calls)
     v_h          :      8.34s CPU      9.80s WALL (      34 calls)
     v_xc         :     83.84s CPU     98.22s WALL (      36 calls)
     newd         :     71.33s CPU     86.10s WALL (      34 calls)
     PAW_pot      :     18.17s CPU     22.01s WALL (      34 calls)
     mix_rho      :     66.84s CPU     78.43s WALL (      33 calls)

     Called by c_bands:
     init_us_2    :     73.59s CPU     81.34s WALL (   21804 calls)
     cegterg      :  74447.29s CPU  85956.02s WALL (   10428 calls)

     Called by sum_band:
     sum_band:wei :      0.55s CPU      0.66s WALL (      33 calls)
     sum_band:loo :  14392.74s CPU  16672.13s WALL (      33 calls)
     sum_band:buf :     18.83s CPU     19.86s WALL (   10428 calls)
     sum_band:ini :     27.66s CPU     29.23s WALL (   10428 calls)
     sum_band:cal :   1027.18s CPU   1201.75s WALL (   10428 calls)
     sum_band:bec :      2.87s CPU      2.92s WALL (   10428 calls)
     addusdens    :    101.92s CPU    120.65s WALL (      33 calls)
     addusd:skk   :      0.88s CPU      1.08s WALL (      99 calls)
     addusd:dgemm :      8.63s CPU     13.70s WALL (     198 calls)
     addusd:qvan2 :     91.49s CPU    104.60s WALL (     198 calls)

     Called by *egterg:
     cdiaghg      :   1291.49s CPU   1522.29s WALL (   40317 calls)
     cegterg:over :   4295.18s CPU   4963.42s WALL (   29889 calls)
     cegterg:upda :    203.40s CPU    229.86s WALL (   29889 calls)
     cegterg:last :    426.78s CPU    484.65s WALL (   18582 calls)
     h_psi        :  65492.46s CPU  75625.22s WALL (   40633 calls)
     s_psi        :    417.09s CPU    489.82s WALL (   40633 calls)
     g_psi        :     23.25s CPU     28.10s WALL (   29889 calls)

     Called by h_psi:
     h_psi:calbec :   3345.92s CPU   3884.79s WALL (   40633 calls)
     vloc_psi     :  61627.70s CPU  71141.17s WALL (   40633 calls)
     add_vuspsi   :    466.45s CPU    541.03s WALL (   40633 calls)

     General routines
     calbec       :   4594.37s CPU   5339.73s WALL (   52641 calls)
     fft          :    136.32s CPU    159.12s WALL (     888 calls)
     ffts         :      2.36s CPU      2.71s WALL (     134 calls)
     fftw         :  74136.90s CPU  85740.10s WALL ( 6683586 calls)
     interpolate  :     11.01s CPU     12.95s WALL (      68 calls)

     Parallel routines
     fft_scatt_xy :    346.01s CPU    351.11s WALL ( 6684608 calls)
     fft_scatt_yz :  72862.23s CPU  84469.62s WALL ( 6684608 calls)

     PAW routines
     PAW_pot      :     18.17s CPU     22.01s WALL (      34 calls)

     PWSCF        :   1d 1h33m CPU   1d 5h33m WALL


   This run was terminated on:  22: 9:53  18Jan2023            

=------------------------------------------------------------------------------=
   JOB DONE.
=------------------------------------------------------------------------------=
Note: The following floating-point exceptions are signalling: IEEE_UNDERFLOW_FLAG IEEE_DENORMAL
Note: The following floating-point exceptions are signalling: IEEE_DENORMAL
Note: The following floating-point exceptions are signalling: IEEE_DENORMAL
Note: The following floating-point exceptions are signalling: IEEE_INVALID_FLAG IEEE_DENORMAL
Note: The following floating-point exceptions are signalling: IEEE_INVALID_FLAG IEEE_DENORMAL
Note: The following floating-point exceptions are signalling: IEEE_DENORMAL
Note: The following floating-point exceptions are signalling: IEEE_DENORMAL
Note: The following floating-point exceptions are signalling: IEEE_DENORMAL
Note: The following floating-point exceptions are signalling: IEEE_INVALID_FLAG IEEE_DENORMAL
Note: The following floating-point exceptions are signalling: IEEE_DENORMAL
Note: The following floating-point exceptions are signalling: IEEE_DENORMAL
Note: The following floating-point exceptions are signalling: IEEE_DENORMAL
Note: The following floating-point exceptions are signalling: IEEE_DENORMAL
Note: The following floating-point exceptions are signalling: IEEE_DENORMAL
Note: The following floating-point exceptions are signalling: IEEE_DENORMAL
Note: The following floating-point exceptions are signalling: IEEE_DENORMAL
Note: The following floating-point exceptions are signalling: IEEE_DENORMAL
Note: The following floating-point exceptions are signalling: IEEE_DENORMAL
Note: The following floating-point exceptions are signalling: IEEE_DENORMAL
Note: The following floating-point exceptions are signalling: IEEE_DENORMAL
Note: The following floating-point exceptions are signalling: IEEE_DENORMAL
Note: The following floating-point exceptions are signalling: IEEE_DENORMAL
Note: The following floating-point exceptions are signalling: IEEE_DENORMAL
Note: The following floating-point exceptions are signalling: IEEE_DENORMAL
Note: The following floating-point exceptions are signalling: IEEE_INVALID_FLAG IEEE_DENORMAL
Note: The following floating-point exceptions are signalling: IEEE_DENORMAL
Note: The following floating-point exceptions are signalling: IEEE_DENORMAL
Note: The following floating-point exceptions are signalling: IEEE_DENORMAL
Note: The following floating-point exceptions are signalling: IEEE_INVALID_FLAG IEEE_DENORMAL
Note: The following floating-point exceptions are signalling: IEEE_DENORMAL
Note: The following floating-point exceptions are signalling: IEEE_DENORMAL
