
     Program PWSCF v.6.7MaX starts on 12Jan2023 at 17:55:48 

     This program is part of the open-source Quantum ESPRESSO suite
     for quantum simulation of materials; please cite
         "P. Giannozzi et al., J. Phys.:Condens. Matter 21 395502 (2009);
         "P. Giannozzi et al., J. Phys.:Condens. Matter 29 465901 (2017);
          URL http://www.quantum-espresso.org", 
     in publications or presentations arising from this work. More details at
     http://www.quantum-espresso.org/quote

     Parallel version (MPI), running on    16 processors

     MPI processes distributed on     1 nodes
     R & G space division:  proc/nbgrp/npool/nimage =      16
     Reading input from scale_1da-00.in

     Current dimensions of program PWSCF are:
     Max number of different atomic species (ntypx) = 10
     Max number of k-points (npk) =  40000
     Max angular momentum in pseudopotentials (lmaxx) =  3
     Message from routine read_pp_mesh:
     mesh size missing, using the one in header
     file Fe.pbe-spn-kjpaw_psl.0.2.1.UPF: wavefunction(s)  3D renormalized
     file O.pbe-n-kjpaw_psl.0.1.UPF: wavefunction(s)  2P renormalized

     Subspace diagonalization in iterative solution of the eigenvalue problem:
     a serial algorithm will be used


     Parallelization info
     --------------------
     sticks:   dense  smooth     PW     G-vecs:    dense   smooth      PW
     Min        1179     437    118                76883    17337    2438
     Max        1180     438    119                76886    17340    2440
     Sum       18873    6997   1891              1230153   277403   39017



     bravais-lattice index     =            0
     lattice parameter (alat)  =      18.6818  a.u.
     unit-cell volume          =    2052.3399 (a.u.)^3
     number of atoms/cell      =           25
     number of atomic types    =            4
     number of electrons       =       189.00
     number of Kohn-Sham states=          114
     kinetic-energy cutoff     =     100.0000  Ry
     charge density cutoff     =    1080.0000  Ry
     scf convergence threshold =      2.0E-10
     mixing beta               =       0.4000
     number of iterations used =            8  plain     mixing
     Exchange-correlation= PBE
                           (   1   4   3   4   0   0   0)

     celldm(1)=  18.681804  celldm(2)=   0.000000  celldm(3)=   0.000000
     celldm(4)=   0.000000  celldm(5)=   0.000000  celldm(6)=   0.000000

     crystal axes: (cart. coord. in units of alat)
               a(1) = (   1.000000   0.000000   0.000000 )  
               a(2) = (   0.000000   0.629042   0.000000 )  
               a(3) = (   0.000000   0.000000   0.500395 )  

     reciprocal axes: (cart. coord. in units 2 pi/alat)
               b(1) = (  1.000000  0.000000  0.000000 )  
               b(2) = (  0.000000  1.589719  0.000000 )  
               b(3) = (  0.000000  0.000000  1.998420 )  


     PseudoPot. # 1 for Fe read from file:
     /opt/QEpot/SSSP_precision_pseudos/Fe.pbe-spn-kjpaw_psl.0.2.1.UPF
     MD5 check sum: e86618425769142926afa95317d90200
     Pseudo is Projector augmented-wave + core cor, Zval = 16.0
     Generated using "atomic" code by A. Dal Corso  v.5.0.99 svn rev. 10869
     Shape of augmentation charge: PSQ
     Using radial grid of 1191 points,  6 beta functions with: 
                l(1) =   0
                l(2) =   0
                l(3) =   1
                l(4) =   1
                l(5) =   2
                l(6) =   2
     Q(r) pseudized with 0 coefficients 


     PseudoPot. # 2 for Na read from file:
     /opt/QEpot/SSSP_precision_pseudos/Na_ONCV_PBE-1.0.oncvpsp.upf
     MD5 check sum: 24a298df0a6742ae313db96548fdb2a4
     Pseudo is Norm-conserving, Zval =  9.0
     Generated using ONCVPSP code by D. R. Hamann
     Using radial grid of 1992 points,  4 beta functions with: 
                l(1) =   0
                l(2) =   0
                l(3) =   1
                l(4) =   1

     PseudoPot. # 3 for O  read from file:
     /opt/QEpot/SSSP_precision_pseudos/O.pbe-n-kjpaw_psl.0.1.UPF
     MD5 check sum: 0234752ac141de4415c5fc33072bef88
     Pseudo is Projector augmented-wave + core cor, Zval =  6.0
     Generated using "atomic" code by A. Dal Corso  v.5.0.99 svn rev. 10869
     Shape of augmentation charge: BESSEL
     Using radial grid of 1095 points,  4 beta functions with: 
                l(1) =   0
                l(2) =   0
                l(3) =   1
                l(4) =   1
     Q(r) pseudized with 0 coefficients 


     PseudoPot. # 4 for P  read from file:
     /opt/QEpot/SSSP_precision_pseudos/P.pbe-n-rrkjus_psl.1.0.0.UPF
     MD5 check sum: 8b930f418f0a4573dca56cd030ffe088
     Pseudo is Ultrasoft + core correction, Zval =  5.0
     Generated using "atomic" code by A. Dal Corso  v.5.1
     Using radial grid of 1147 points,  6 beta functions with: 
                l(1) =   0
                l(2) =   0
                l(3) =   1
                l(4) =   1
                l(5) =   2
                l(6) =   2
     Q(r) pseudized with 0 coefficients 


     atomic species   valence    mass     pseudopotential
        Fe            16.00    55.84500     Fe( 1.00)
        Na             9.00    22.98977     Na( 1.00)
        O              6.00    15.99940     O ( 1.00)
        P              5.00    30.97376     P ( 1.00)

     Starting magnetic structure 
     atomic species   magnetization
        Fe           0.312
        Na           0.000
        O            0.000
        P            0.000

     No symmetry found


                                    s                        frac. trans.

      isym =  1     identity                                     

 cryst.   s( 1) = (     1          0          0      )
                  (     0          1          0      )
                  (     0          0          1      )

 cart.    s( 1) = (  1.0000000  0.0000000  0.0000000 )
                  (  0.0000000  1.0000000  0.0000000 )
                  (  0.0000000  0.0000000  1.0000000 )


   Cartesian axes

     site n.     atom                  positions (alat units)
         1           Na  tau(   1) = (   0.9937840   0.0406267   0.1635827  )
         2           Fe  tau(   2) = (   0.2986740   0.4861765   0.4295683  )
         3           Fe  tau(   3) = (   0.2261460   0.2111921   0.2589490  )
         4           Fe  tau(   4) = (   0.6975520   0.1431731   0.0758914  )
         5           Fe  tau(   5) = (   0.7773350   0.4155584   0.2512575  )
         6           P   tau(   6) = (   0.0931440   0.4127157   0.1413932  )
         7           P   tau(   7) = (   0.3969020   0.1578933   0.4756562  )
         8           P   tau(   8) = (   0.9073800   0.2088552   0.3687718  )
         9           P   tau(   9) = (   0.6037890   0.4708342   0.0301383  )
        10           O   tau(  10) = (   0.1796790   0.4243341   0.2726984  )
        11           O   tau(  11) = (   0.3567140   0.1577285   0.1247075  )
        12           O   tau(  12) = (   0.8229580   0.1946527   0.2353684  )
        13           O   tau(  13) = (   0.6444220   0.4703228   0.3809739  )
        14           O   tau(  14) = (   0.4575890   0.4877963   0.0444341  )
        15           O   tau(  15) = (   0.0485940   0.1677416   0.3419206  )
        16           O   tau(  16) = (   0.5429300   0.1408501   0.4593353  )
        17           O   tau(  17) = (   0.9517230   0.4528763   0.1669729  )
        18           O   tau(  18) = (   0.1489580   0.5182872   0.0401412  )
        19           O   tau(  19) = (   0.3206220   0.0511071   0.3868441  )
        20           O   tau(  20) = (   0.8840090   0.3571122   0.4103822  )
        21           O   tau(  21) = (   0.6538890   0.3396047   0.1080829  )
        22           O   tau(  22) = (   0.8517680   0.1068189   0.4732793  )
        23           O   tau(  23) = (   0.6791950   0.5782978   0.1186903  )
        24           O   tau(  24) = (   0.1140230   0.2644103   0.0972013  )
        25           O   tau(  25) = (   0.3482900   0.2895751   0.3987385  )

   Crystallographic axes

     site n.     atom                  positions (cryst. coord.)
         1           Na  tau(   1) = (  0.9937840  0.0645850  0.3269070  )
         2           Fe  tau(   2) = (  0.2986740  0.7728840  0.8584580  )
         3           Fe  tau(   3) = (  0.2261460  0.3357360  0.5174890  )
         4           Fe  tau(   4) = (  0.6975520  0.2276050  0.1516630  )
         5           Fe  tau(   5) = (  0.7773350  0.6606210  0.5021180  )
         6           P   tau(   6) = (  0.0931440  0.6561020  0.2825630  )
         7           P   tau(   7) = (  0.3969020  0.2510060  0.9505610  )
         8           P   tau(   8) = (  0.9073800  0.3320210  0.7369610  )
         9           P   tau(   9) = (  0.6037890  0.7484940  0.0602290  )
        10           O   tau(  10) = (  0.1796790  0.6745720  0.5449660  )
        11           O   tau(  11) = (  0.3567140  0.2507440  0.2492180  )
        12           O   tau(  12) = (  0.8229580  0.3094430  0.4703650  )
        13           O   tau(  13) = (  0.6444220  0.7476810  0.7613460  )
        14           O   tau(  14) = (  0.4575890  0.7754590  0.0887980  )
        15           O   tau(  15) = (  0.0485940  0.2666620  0.6833010  )
        16           O   tau(  16) = (  0.5429300  0.2239120  0.9179450  )
        17           O   tau(  17) = (  0.9517230  0.7199460  0.3336820  )
        18           O   tau(  18) = (  0.1489580  0.8239310  0.0802190  )
        19           O   tau(  19) = (  0.3206220  0.0812460  0.7730770  )
        20           O   tau(  20) = (  0.8840090  0.5677080  0.8201160  )
        21           O   tau(  21) = (  0.6538890  0.5398760  0.2159950  )
        22           O   tau(  22) = (  0.8517680  0.1698120  0.9458110  )
        23           O   tau(  23) = (  0.6791950  0.9193310  0.2371930  )
        24           O   tau(  24) = (  0.1140230  0.4203380  0.1942490  )
        25           O   tau(  25) = (  0.3482900  0.4603430  0.7968470  )

     number of k points=   158  Marzari-Vanderbilt smearing, width (Ry)=  0.0073
                       cart. coord. in units 2pi/alat
        k(    1) = (   0.0000000   0.0000000   0.0000000), wk =   0.0031746
        k(    2) = (   0.0000000   0.0000000   0.2220467), wk =   0.0063492
        k(    3) = (   0.0000000   0.0000000   0.4440934), wk =   0.0063492
        k(    4) = (   0.0000000   0.0000000   0.6661401), wk =   0.0063492
        k(    5) = (   0.0000000   0.0000000   0.8881868), wk =   0.0063492
        k(    6) = (   0.0000000   0.2271027   0.0000000), wk =   0.0063492
        k(    7) = (   0.0000000   0.2271027   0.2220467), wk =   0.0063492
        k(    8) = (   0.0000000   0.2271027   0.4440934), wk =   0.0063492
        k(    9) = (   0.0000000   0.2271027   0.6661401), wk =   0.0063492
        k(   10) = (   0.0000000   0.2271027   0.8881868), wk =   0.0063492
        k(   11) = (   0.0000000   0.4542054   0.0000000), wk =   0.0063492
        k(   12) = (   0.0000000   0.4542054   0.2220467), wk =   0.0063492
        k(   13) = (   0.0000000   0.4542054   0.4440934), wk =   0.0063492
        k(   14) = (   0.0000000   0.4542054   0.6661401), wk =   0.0063492
        k(   15) = (   0.0000000   0.4542054   0.8881868), wk =   0.0063492
        k(   16) = (   0.0000000   0.6813081   0.0000000), wk =   0.0063492
        k(   17) = (   0.0000000   0.6813081   0.2220467), wk =   0.0063492
        k(   18) = (   0.0000000   0.6813081   0.4440934), wk =   0.0063492
        k(   19) = (   0.0000000   0.6813081   0.6661401), wk =   0.0063492
        k(   20) = (   0.0000000   0.6813081   0.8881868), wk =   0.0063492
        k(   21) = (   0.2000000   0.0000000   0.0000000), wk =   0.0063492
        k(   22) = (   0.2000000   0.0000000   0.2220467), wk =   0.0063492
        k(   23) = (   0.2000000   0.0000000   0.4440934), wk =   0.0063492
        k(   24) = (   0.2000000   0.0000000   0.6661401), wk =   0.0063492
        k(   25) = (   0.2000000   0.0000000   0.8881868), wk =   0.0063492
        k(   26) = (   0.2000000   0.2271027   0.0000000), wk =   0.0063492
        k(   27) = (   0.2000000   0.2271027   0.2220467), wk =   0.0063492
        k(   28) = (   0.2000000   0.2271027   0.4440934), wk =   0.0063492
        k(   29) = (   0.2000000   0.2271027   0.6661401), wk =   0.0063492
        k(   30) = (   0.2000000   0.2271027   0.8881868), wk =   0.0063492
        k(   31) = (   0.2000000   0.4542054   0.0000000), wk =   0.0063492
        k(   32) = (   0.2000000   0.4542054   0.2220467), wk =   0.0063492
        k(   33) = (   0.2000000   0.4542054   0.4440934), wk =   0.0063492
        k(   34) = (   0.2000000   0.4542054   0.6661401), wk =   0.0063492
        k(   35) = (   0.2000000   0.4542054   0.8881868), wk =   0.0063492
        k(   36) = (   0.2000000   0.6813081   0.0000000), wk =   0.0063492
        k(   37) = (   0.2000000   0.6813081   0.2220467), wk =   0.0063492
        k(   38) = (   0.2000000   0.6813081   0.4440934), wk =   0.0063492
        k(   39) = (   0.2000000   0.6813081   0.6661401), wk =   0.0063492
        k(   40) = (   0.2000000   0.6813081   0.8881868), wk =   0.0063492
        k(   41) = (   0.4000000   0.0000000   0.0000000), wk =   0.0063492
        k(   42) = (   0.4000000   0.0000000   0.2220467), wk =   0.0063492
        k(   43) = (   0.4000000   0.0000000   0.4440934), wk =   0.0063492
        k(   44) = (   0.4000000   0.0000000   0.6661401), wk =   0.0063492
        k(   45) = (   0.4000000   0.0000000   0.8881868), wk =   0.0063492
        k(   46) = (   0.4000000   0.2271027   0.0000000), wk =   0.0063492
        k(   47) = (   0.4000000   0.2271027   0.2220467), wk =   0.0063492
        k(   48) = (   0.4000000   0.2271027   0.4440934), wk =   0.0063492
        k(   49) = (   0.4000000   0.2271027   0.6661401), wk =   0.0063492
        k(   50) = (   0.4000000   0.2271027   0.8881868), wk =   0.0063492
        k(   51) = (   0.4000000   0.4542054   0.0000000), wk =   0.0063492
        k(   52) = (   0.4000000   0.4542054   0.2220467), wk =   0.0063492
        k(   53) = (   0.4000000   0.4542054   0.4440934), wk =   0.0063492
        k(   54) = (   0.4000000   0.4542054   0.6661401), wk =   0.0063492
        k(   55) = (   0.4000000   0.4542054   0.8881868), wk =   0.0063492
        k(   56) = (   0.4000000   0.6813081   0.0000000), wk =   0.0063492
        k(   57) = (   0.4000000   0.6813081   0.2220467), wk =   0.0063492
        k(   58) = (   0.4000000   0.6813081   0.4440934), wk =   0.0063492
        k(   59) = (   0.4000000   0.6813081   0.6661401), wk =   0.0063492
        k(   60) = (   0.4000000   0.6813081   0.8881868), wk =   0.0063492
        k(   61) = (   0.0000000  -0.2271027   0.2220467), wk =   0.0063492
        k(   62) = (   0.0000000  -0.2271027   0.4440934), wk =   0.0063492
        k(   63) = (   0.0000000  -0.2271027   0.6661401), wk =   0.0063492
        k(   64) = (   0.0000000  -0.2271027   0.8881868), wk =   0.0063492
        k(   65) = (   0.0000000  -0.4542054   0.2220467), wk =   0.0063492
        k(   66) = (   0.0000000  -0.4542054   0.4440934), wk =   0.0063492
        k(   67) = (   0.0000000  -0.4542054   0.6661401), wk =   0.0063492
        k(   68) = (   0.0000000  -0.4542054   0.8881868), wk =   0.0063492
        k(   69) = (   0.0000000  -0.6813081   0.2220467), wk =   0.0063492
        k(   70) = (   0.0000000  -0.6813081   0.4440934), wk =   0.0063492
        k(   71) = (   0.0000000  -0.6813081   0.6661401), wk =   0.0063492
        k(   72) = (   0.0000000  -0.6813081   0.8881868), wk =   0.0063492
        k(   73) = (  -0.2000000   0.0000000   0.2220467), wk =   0.0063492
        k(   74) = (  -0.2000000   0.0000000   0.4440934), wk =   0.0063492
        k(   75) = (  -0.2000000   0.0000000   0.6661401), wk =   0.0063492
        k(   76) = (  -0.2000000   0.0000000   0.8881868), wk =   0.0063492
        k(   77) = (  -0.2000000   0.2271027   0.0000000), wk =   0.0063492
        k(   78) = (  -0.2000000  -0.2271027   0.2220467), wk =   0.0063492
        k(   79) = (  -0.2000000   0.2271027  -0.2220467), wk =   0.0063492
        k(   80) = (   0.2000000  -0.2271027  -0.2220467), wk =   0.0063492
        k(   81) = (  -0.2000000  -0.2271027   0.4440934), wk =   0.0063492
        k(   82) = (  -0.2000000   0.2271027  -0.4440934), wk =   0.0063492
        k(   83) = (   0.2000000  -0.2271027  -0.4440934), wk =   0.0063492
        k(   84) = (  -0.2000000  -0.2271027   0.6661401), wk =   0.0063492
        k(   85) = (  -0.2000000   0.2271027  -0.6661401), wk =   0.0063492
        k(   86) = (   0.2000000  -0.2271027  -0.6661401), wk =   0.0063492
        k(   87) = (  -0.2000000  -0.2271027   0.8881868), wk =   0.0063492
        k(   88) = (  -0.2000000   0.2271027  -0.8881868), wk =   0.0063492
        k(   89) = (   0.2000000  -0.2271027  -0.8881868), wk =   0.0063492
        k(   90) = (  -0.2000000   0.4542054   0.0000000), wk =   0.0063492
        k(   91) = (  -0.2000000  -0.4542054   0.2220467), wk =   0.0063492
        k(   92) = (  -0.2000000   0.4542054  -0.2220467), wk =   0.0063492
        k(   93) = (   0.2000000  -0.4542054  -0.2220467), wk =   0.0063492
        k(   94) = (  -0.2000000  -0.4542054   0.4440934), wk =   0.0063492
        k(   95) = (  -0.2000000   0.4542054  -0.4440934), wk =   0.0063492
        k(   96) = (   0.2000000  -0.4542054  -0.4440934), wk =   0.0063492
        k(   97) = (  -0.2000000  -0.4542054   0.6661401), wk =   0.0063492
        k(   98) = (  -0.2000000   0.4542054  -0.6661401), wk =   0.0063492
        k(   99) = (   0.2000000  -0.4542054  -0.6661401), wk =   0.0063492
        k(  100) = (  -0.2000000  -0.4542054   0.8881868), wk =   0.0063492
        k(  101) = (  -0.2000000   0.4542054  -0.8881868), wk =   0.0063492
        k(  102) = (   0.2000000  -0.4542054  -0.8881868), wk =   0.0063492
        k(  103) = (  -0.2000000   0.6813081   0.0000000), wk =   0.0063492
        k(  104) = (  -0.2000000  -0.6813081   0.2220467), wk =   0.0063492
        k(  105) = (  -0.2000000   0.6813081  -0.2220467), wk =   0.0063492
        k(  106) = (   0.2000000  -0.6813081  -0.2220467), wk =   0.0063492
        k(  107) = (  -0.2000000  -0.6813081   0.4440934), wk =   0.0063492
        k(  108) = (  -0.2000000   0.6813081  -0.4440934), wk =   0.0063492
        k(  109) = (   0.2000000  -0.6813081  -0.4440934), wk =   0.0063492
        k(  110) = (  -0.2000000  -0.6813081   0.6661401), wk =   0.0063492
        k(  111) = (  -0.2000000   0.6813081  -0.6661401), wk =   0.0063492
        k(  112) = (   0.2000000  -0.6813081  -0.6661401), wk =   0.0063492
        k(  113) = (  -0.2000000  -0.6813081   0.8881868), wk =   0.0063492
        k(  114) = (  -0.2000000   0.6813081  -0.8881868), wk =   0.0063492
        k(  115) = (   0.2000000  -0.6813081  -0.8881868), wk =   0.0063492
        k(  116) = (  -0.4000000   0.0000000   0.2220467), wk =   0.0063492
        k(  117) = (  -0.4000000   0.0000000   0.4440934), wk =   0.0063492
        k(  118) = (  -0.4000000   0.0000000   0.6661401), wk =   0.0063492
        k(  119) = (  -0.4000000   0.0000000   0.8881868), wk =   0.0063492
        k(  120) = (  -0.4000000   0.2271027   0.0000000), wk =   0.0063492
        k(  121) = (  -0.4000000  -0.2271027   0.2220467), wk =   0.0063492
        k(  122) = (  -0.4000000   0.2271027  -0.2220467), wk =   0.0063492
        k(  123) = (   0.4000000  -0.2271027  -0.2220467), wk =   0.0063492
        k(  124) = (  -0.4000000  -0.2271027   0.4440934), wk =   0.0063492
        k(  125) = (  -0.4000000   0.2271027  -0.4440934), wk =   0.0063492
        k(  126) = (   0.4000000  -0.2271027  -0.4440934), wk =   0.0063492
        k(  127) = (  -0.4000000  -0.2271027   0.6661401), wk =   0.0063492
        k(  128) = (  -0.4000000   0.2271027  -0.6661401), wk =   0.0063492
        k(  129) = (   0.4000000  -0.2271027  -0.6661401), wk =   0.0063492
        k(  130) = (  -0.4000000  -0.2271027   0.8881868), wk =   0.0063492
        k(  131) = (  -0.4000000   0.2271027  -0.8881868), wk =   0.0063492
        k(  132) = (   0.4000000  -0.2271027  -0.8881868), wk =   0.0063492
        k(  133) = (  -0.4000000   0.4542054   0.0000000), wk =   0.0063492
        k(  134) = (  -0.4000000  -0.4542054   0.2220467), wk =   0.0063492
        k(  135) = (  -0.4000000   0.4542054  -0.2220467), wk =   0.0063492
        k(  136) = (   0.4000000  -0.4542054  -0.2220467), wk =   0.0063492
        k(  137) = (  -0.4000000  -0.4542054   0.4440934), wk =   0.0063492
        k(  138) = (  -0.4000000   0.4542054  -0.4440934), wk =   0.0063492
        k(  139) = (   0.4000000  -0.4542054  -0.4440934), wk =   0.0063492
        k(  140) = (  -0.4000000  -0.4542054   0.6661401), wk =   0.0063492
        k(  141) = (  -0.4000000   0.4542054  -0.6661401), wk =   0.0063492
        k(  142) = (   0.4000000  -0.4542054  -0.6661401), wk =   0.0063492
        k(  143) = (  -0.4000000  -0.4542054   0.8881868), wk =   0.0063492
        k(  144) = (  -0.4000000   0.4542054  -0.8881868), wk =   0.0063492
        k(  145) = (   0.4000000  -0.4542054  -0.8881868), wk =   0.0063492
        k(  146) = (  -0.4000000   0.6813081   0.0000000), wk =   0.0063492
        k(  147) = (  -0.4000000  -0.6813081   0.2220467), wk =   0.0063492
        k(  148) = (  -0.4000000   0.6813081  -0.2220467), wk =   0.0063492
        k(  149) = (   0.4000000  -0.6813081  -0.2220467), wk =   0.0063492
        k(  150) = (  -0.4000000  -0.6813081   0.4440934), wk =   0.0063492
        k(  151) = (  -0.4000000   0.6813081  -0.4440934), wk =   0.0063492
        k(  152) = (   0.4000000  -0.6813081  -0.4440934), wk =   0.0063492
        k(  153) = (  -0.4000000  -0.6813081   0.6661401), wk =   0.0063492
        k(  154) = (  -0.4000000   0.6813081  -0.6661401), wk =   0.0063492
        k(  155) = (   0.4000000  -0.6813081  -0.6661401), wk =   0.0063492
        k(  156) = (  -0.4000000  -0.6813081   0.8881868), wk =   0.0063492
        k(  157) = (  -0.4000000   0.6813081  -0.8881868), wk =   0.0063492
        k(  158) = (   0.4000000  -0.6813081  -0.8881868), wk =   0.0063492

                       cryst. coord.
        k(    1) = (   0.0000000   0.0000000   0.0000000), wk =   0.0031746
        k(    2) = (   0.0000000   0.0000000   0.1111111), wk =   0.0063492
        k(    3) = (   0.0000000   0.0000000   0.2222222), wk =   0.0063492
        k(    4) = (   0.0000000   0.0000000   0.3333333), wk =   0.0063492
        k(    5) = (   0.0000000   0.0000000   0.4444444), wk =   0.0063492
        k(    6) = (   0.0000000   0.1428571   0.0000000), wk =   0.0063492
        k(    7) = (   0.0000000   0.1428571   0.1111111), wk =   0.0063492
        k(    8) = (   0.0000000   0.1428571   0.2222222), wk =   0.0063492
        k(    9) = (   0.0000000   0.1428571   0.3333333), wk =   0.0063492
        k(   10) = (   0.0000000   0.1428571   0.4444444), wk =   0.0063492
        k(   11) = (   0.0000000   0.2857143   0.0000000), wk =   0.0063492
        k(   12) = (   0.0000000   0.2857143   0.1111111), wk =   0.0063492
        k(   13) = (   0.0000000   0.2857143   0.2222222), wk =   0.0063492
        k(   14) = (   0.0000000   0.2857143   0.3333333), wk =   0.0063492
        k(   15) = (   0.0000000   0.2857143   0.4444444), wk =   0.0063492
        k(   16) = (   0.0000000   0.4285714   0.0000000), wk =   0.0063492
        k(   17) = (   0.0000000   0.4285714   0.1111111), wk =   0.0063492
        k(   18) = (   0.0000000   0.4285714   0.2222222), wk =   0.0063492
        k(   19) = (   0.0000000   0.4285714   0.3333333), wk =   0.0063492
        k(   20) = (   0.0000000   0.4285714   0.4444444), wk =   0.0063492
        k(   21) = (   0.2000000   0.0000000   0.0000000), wk =   0.0063492
        k(   22) = (   0.2000000   0.0000000   0.1111111), wk =   0.0063492
        k(   23) = (   0.2000000   0.0000000   0.2222222), wk =   0.0063492
        k(   24) = (   0.2000000   0.0000000   0.3333333), wk =   0.0063492
        k(   25) = (   0.2000000   0.0000000   0.4444444), wk =   0.0063492
        k(   26) = (   0.2000000   0.1428571   0.0000000), wk =   0.0063492
        k(   27) = (   0.2000000   0.1428571   0.1111111), wk =   0.0063492
        k(   28) = (   0.2000000   0.1428571   0.2222222), wk =   0.0063492
        k(   29) = (   0.2000000   0.1428571   0.3333333), wk =   0.0063492
        k(   30) = (   0.2000000   0.1428571   0.4444444), wk =   0.0063492
        k(   31) = (   0.2000000   0.2857143   0.0000000), wk =   0.0063492
        k(   32) = (   0.2000000   0.2857143   0.1111111), wk =   0.0063492
        k(   33) = (   0.2000000   0.2857143   0.2222222), wk =   0.0063492
        k(   34) = (   0.2000000   0.2857143   0.3333333), wk =   0.0063492
        k(   35) = (   0.2000000   0.2857143   0.4444444), wk =   0.0063492
        k(   36) = (   0.2000000   0.4285714   0.0000000), wk =   0.0063492
        k(   37) = (   0.2000000   0.4285714   0.1111111), wk =   0.0063492
        k(   38) = (   0.2000000   0.4285714   0.2222222), wk =   0.0063492
        k(   39) = (   0.2000000   0.4285714   0.3333333), wk =   0.0063492
        k(   40) = (   0.2000000   0.4285714   0.4444444), wk =   0.0063492
        k(   41) = (   0.4000000   0.0000000   0.0000000), wk =   0.0063492
        k(   42) = (   0.4000000   0.0000000   0.1111111), wk =   0.0063492
        k(   43) = (   0.4000000   0.0000000   0.2222222), wk =   0.0063492
        k(   44) = (   0.4000000   0.0000000   0.3333333), wk =   0.0063492
        k(   45) = (   0.4000000   0.0000000   0.4444444), wk =   0.0063492
        k(   46) = (   0.4000000   0.1428571   0.0000000), wk =   0.0063492
        k(   47) = (   0.4000000   0.1428571   0.1111111), wk =   0.0063492
        k(   48) = (   0.4000000   0.1428571   0.2222222), wk =   0.0063492
        k(   49) = (   0.4000000   0.1428571   0.3333333), wk =   0.0063492
        k(   50) = (   0.4000000   0.1428571   0.4444444), wk =   0.0063492
        k(   51) = (   0.4000000   0.2857143   0.0000000), wk =   0.0063492
        k(   52) = (   0.4000000   0.2857143   0.1111111), wk =   0.0063492
        k(   53) = (   0.4000000   0.2857143   0.2222222), wk =   0.0063492
        k(   54) = (   0.4000000   0.2857143   0.3333333), wk =   0.0063492
        k(   55) = (   0.4000000   0.2857143   0.4444444), wk =   0.0063492
        k(   56) = (   0.4000000   0.4285714   0.0000000), wk =   0.0063492
        k(   57) = (   0.4000000   0.4285714   0.1111111), wk =   0.0063492
        k(   58) = (   0.4000000   0.4285714   0.2222222), wk =   0.0063492
        k(   59) = (   0.4000000   0.4285714   0.3333333), wk =   0.0063492
        k(   60) = (   0.4000000   0.4285714   0.4444444), wk =   0.0063492
        k(   61) = (   0.0000000  -0.1428571   0.1111111), wk =   0.0063492
        k(   62) = (   0.0000000  -0.1428571   0.2222222), wk =   0.0063492
        k(   63) = (   0.0000000  -0.1428571   0.3333333), wk =   0.0063492
        k(   64) = (   0.0000000  -0.1428571   0.4444444), wk =   0.0063492
        k(   65) = (   0.0000000  -0.2857143   0.1111111), wk =   0.0063492
        k(   66) = (   0.0000000  -0.2857143   0.2222222), wk =   0.0063492
        k(   67) = (   0.0000000  -0.2857143   0.3333333), wk =   0.0063492
        k(   68) = (   0.0000000  -0.2857143   0.4444444), wk =   0.0063492
        k(   69) = (   0.0000000  -0.4285714   0.1111111), wk =   0.0063492
        k(   70) = (   0.0000000  -0.4285714   0.2222222), wk =   0.0063492
        k(   71) = (   0.0000000  -0.4285714   0.3333333), wk =   0.0063492
        k(   72) = (   0.0000000  -0.4285714   0.4444444), wk =   0.0063492
        k(   73) = (  -0.2000000   0.0000000   0.1111111), wk =   0.0063492
        k(   74) = (  -0.2000000   0.0000000   0.2222222), wk =   0.0063492
        k(   75) = (  -0.2000000   0.0000000   0.3333333), wk =   0.0063492
        k(   76) = (  -0.2000000   0.0000000   0.4444444), wk =   0.0063492
        k(   77) = (  -0.2000000   0.1428571   0.0000000), wk =   0.0063492
        k(   78) = (  -0.2000000  -0.1428571   0.1111111), wk =   0.0063492
        k(   79) = (  -0.2000000   0.1428571  -0.1111111), wk =   0.0063492
        k(   80) = (   0.2000000  -0.1428571  -0.1111111), wk =   0.0063492
        k(   81) = (  -0.2000000  -0.1428571   0.2222222), wk =   0.0063492
        k(   82) = (  -0.2000000   0.1428571  -0.2222222), wk =   0.0063492
        k(   83) = (   0.2000000  -0.1428571  -0.2222222), wk =   0.0063492
        k(   84) = (  -0.2000000  -0.1428571   0.3333333), wk =   0.0063492
        k(   85) = (  -0.2000000   0.1428571  -0.3333333), wk =   0.0063492
        k(   86) = (   0.2000000  -0.1428571  -0.3333333), wk =   0.0063492
        k(   87) = (  -0.2000000  -0.1428571   0.4444444), wk =   0.0063492
        k(   88) = (  -0.2000000   0.1428571  -0.4444444), wk =   0.0063492
        k(   89) = (   0.2000000  -0.1428571  -0.4444444), wk =   0.0063492
        k(   90) = (  -0.2000000   0.2857143   0.0000000), wk =   0.0063492
        k(   91) = (  -0.2000000  -0.2857143   0.1111111), wk =   0.0063492
        k(   92) = (  -0.2000000   0.2857143  -0.1111111), wk =   0.0063492
        k(   93) = (   0.2000000  -0.2857143  -0.1111111), wk =   0.0063492
        k(   94) = (  -0.2000000  -0.2857143   0.2222222), wk =   0.0063492
        k(   95) = (  -0.2000000   0.2857143  -0.2222222), wk =   0.0063492
        k(   96) = (   0.2000000  -0.2857143  -0.2222222), wk =   0.0063492
        k(   97) = (  -0.2000000  -0.2857143   0.3333333), wk =   0.0063492
        k(   98) = (  -0.2000000   0.2857143  -0.3333333), wk =   0.0063492
        k(   99) = (   0.2000000  -0.2857143  -0.3333333), wk =   0.0063492
        k(  100) = (  -0.2000000  -0.2857143   0.4444444), wk =   0.0063492
        k(  101) = (  -0.2000000   0.2857143  -0.4444444), wk =   0.0063492
        k(  102) = (   0.2000000  -0.2857143  -0.4444444), wk =   0.0063492
        k(  103) = (  -0.2000000   0.4285714   0.0000000), wk =   0.0063492
        k(  104) = (  -0.2000000  -0.4285714   0.1111111), wk =   0.0063492
        k(  105) = (  -0.2000000   0.4285714  -0.1111111), wk =   0.0063492
        k(  106) = (   0.2000000  -0.4285714  -0.1111111), wk =   0.0063492
        k(  107) = (  -0.2000000  -0.4285714   0.2222222), wk =   0.0063492
        k(  108) = (  -0.2000000   0.4285714  -0.2222222), wk =   0.0063492
        k(  109) = (   0.2000000  -0.4285714  -0.2222222), wk =   0.0063492
        k(  110) = (  -0.2000000  -0.4285714   0.3333333), wk =   0.0063492
        k(  111) = (  -0.2000000   0.4285714  -0.3333333), wk =   0.0063492
        k(  112) = (   0.2000000  -0.4285714  -0.3333333), wk =   0.0063492
        k(  113) = (  -0.2000000  -0.4285714   0.4444444), wk =   0.0063492
        k(  114) = (  -0.2000000   0.4285714  -0.4444444), wk =   0.0063492
        k(  115) = (   0.2000000  -0.4285714  -0.4444444), wk =   0.0063492
        k(  116) = (  -0.4000000   0.0000000   0.1111111), wk =   0.0063492
        k(  117) = (  -0.4000000   0.0000000   0.2222222), wk =   0.0063492
        k(  118) = (  -0.4000000   0.0000000   0.3333333), wk =   0.0063492
        k(  119) = (  -0.4000000   0.0000000   0.4444444), wk =   0.0063492
        k(  120) = (  -0.4000000   0.1428571   0.0000000), wk =   0.0063492
        k(  121) = (  -0.4000000  -0.1428571   0.1111111), wk =   0.0063492
        k(  122) = (  -0.4000000   0.1428571  -0.1111111), wk =   0.0063492
        k(  123) = (   0.4000000  -0.1428571  -0.1111111), wk =   0.0063492
        k(  124) = (  -0.4000000  -0.1428571   0.2222222), wk =   0.0063492
        k(  125) = (  -0.4000000   0.1428571  -0.2222222), wk =   0.0063492
        k(  126) = (   0.4000000  -0.1428571  -0.2222222), wk =   0.0063492
        k(  127) = (  -0.4000000  -0.1428571   0.3333333), wk =   0.0063492
        k(  128) = (  -0.4000000   0.1428571  -0.3333333), wk =   0.0063492
        k(  129) = (   0.4000000  -0.1428571  -0.3333333), wk =   0.0063492
        k(  130) = (  -0.4000000  -0.1428571   0.4444444), wk =   0.0063492
        k(  131) = (  -0.4000000   0.1428571  -0.4444444), wk =   0.0063492
        k(  132) = (   0.4000000  -0.1428571  -0.4444444), wk =   0.0063492
        k(  133) = (  -0.4000000   0.2857143   0.0000000), wk =   0.0063492
        k(  134) = (  -0.4000000  -0.2857143   0.1111111), wk =   0.0063492
        k(  135) = (  -0.4000000   0.2857143  -0.1111111), wk =   0.0063492
        k(  136) = (   0.4000000  -0.2857143  -0.1111111), wk =   0.0063492
        k(  137) = (  -0.4000000  -0.2857143   0.2222222), wk =   0.0063492
        k(  138) = (  -0.4000000   0.2857143  -0.2222222), wk =   0.0063492
        k(  139) = (   0.4000000  -0.2857143  -0.2222222), wk =   0.0063492
        k(  140) = (  -0.4000000  -0.2857143   0.3333333), wk =   0.0063492
        k(  141) = (  -0.4000000   0.2857143  -0.3333333), wk =   0.0063492
        k(  142) = (   0.4000000  -0.2857143  -0.3333333), wk =   0.0063492
        k(  143) = (  -0.4000000  -0.2857143   0.4444444), wk =   0.0063492
        k(  144) = (  -0.4000000   0.2857143  -0.4444444), wk =   0.0063492
        k(  145) = (   0.4000000  -0.2857143  -0.4444444), wk =   0.0063492
        k(  146) = (  -0.4000000   0.4285714   0.0000000), wk =   0.0063492
        k(  147) = (  -0.4000000  -0.4285714   0.1111111), wk =   0.0063492
        k(  148) = (  -0.4000000   0.4285714  -0.1111111), wk =   0.0063492
        k(  149) = (   0.4000000  -0.4285714  -0.1111111), wk =   0.0063492
        k(  150) = (  -0.4000000  -0.4285714   0.2222222), wk =   0.0063492
        k(  151) = (  -0.4000000   0.4285714  -0.2222222), wk =   0.0063492
        k(  152) = (   0.4000000  -0.4285714  -0.2222222), wk =   0.0063492
        k(  153) = (  -0.4000000  -0.4285714   0.3333333), wk =   0.0063492
        k(  154) = (  -0.4000000   0.4285714  -0.3333333), wk =   0.0063492
        k(  155) = (   0.4000000  -0.4285714  -0.3333333), wk =   0.0063492
        k(  156) = (  -0.4000000  -0.4285714   0.4444444), wk =   0.0063492
        k(  157) = (  -0.4000000   0.4285714  -0.4444444), wk =   0.0063492
        k(  158) = (   0.4000000  -0.4285714  -0.4444444), wk =   0.0063492

     Dense  grid:  1230153 G-vectors     FFT dimensions: ( 200, 125, 100)

     Smooth grid:   277403 G-vectors     FFT dimensions: ( 120,  75,  60)

     Dynamical RAM for                 wfc:       3.77 MB

     Dynamical RAM for     wfc (w. buffer):    1194.38 MB

     Dynamical RAM for           str. fact:       4.69 MB

     Dynamical RAM for           local pot:       0.00 MB

     Dynamical RAM for          nlocal pot:       9.25 MB

     Dynamical RAM for                qrad:      10.54 MB

     Dynamical RAM for          rho,v,vnew:      15.05 MB

     Dynamical RAM for               rhoin:       5.02 MB

     Dynamical RAM for            rho*nmix:      37.54 MB

     Dynamical RAM for           G-vectors:       4.53 MB

     Dynamical RAM for          h,s,v(r/c):       2.38 MB

     Dynamical RAM for          <psi|beta>:       0.49 MB

     Dynamical RAM for                 psi:       7.54 MB

     Dynamical RAM for                hpsi:       7.54 MB

     Dynamical RAM for                spsi:       7.54 MB

     Dynamical RAM for      wfcinit/wfcrot:       9.49 MB

     Dynamical RAM for           addusdens:     238.15 MB

     Dynamical RAM for          addusforce:     273.47 MB

     Dynamical RAM for         addusstress:     237.57 MB

     Estimated static dynamical RAM per process >       1.26 GB

     Estimated max dynamical RAM per process >       1.53 GB

     Estimated total dynamical RAM >      24.51 GB

     Check: negative core charge=   -0.000003
     Generating pointlists ...
     new r_m :   0.0780 (alat units)  1.4564 (a.u.) for type    1
     new r_m :   0.0911 (alat units)  1.7020 (a.u.) for type    2
     new r_m :   0.0610 (alat units)  1.1395 (a.u.) for type    3
     new r_m :   0.0610 (alat units)  1.1395 (a.u.) for type    4

     Initial potential from superposition of free atoms

     starting charge  188.99132, renormalised to  189.00000
     Starting wfcs are  137 randomized atomic wfcs
     Checking if some PAW data can be deallocated... 
       PAW data deallocated on   13 nodes for type:  1
       PAW data deallocated on    4 nodes for type:  3

     total cpu time spent up to now is     1428.9 secs

     Self-consistent Calculation

     iteration #  1     ecut=   100.00 Ry     beta= 0.40
     Davidson diagonalization with overlap
     ethr =  1.00E-02,  avg # of iterations =  3.0

     negative rho (up, down):  0.000E+00 4.041E-05

     total cpu time spent up to now is     5627.6 secs

     total energy              =   -2123.90391588 Ry
     estimated scf accuracy    <       6.78545152 Ry

     total magnetization       =    19.00 Bohr mag/cell
     absolute magnetization    =    19.00 Bohr mag/cell

     iteration #  2     ecut=   100.00 Ry     beta= 0.40
     Davidson diagonalization with overlap
     ethr =  3.59E-03,  avg # of iterations =  2.0

     negative rho (up, down):  0.000E+00 3.662E-05

     total cpu time spent up to now is     9469.4 secs

     total energy              =   -2122.63274550 Ry
     estimated scf accuracy    <      17.70312836 Ry

     total magnetization       =    10.63 Bohr mag/cell
     absolute magnetization    =    11.69 Bohr mag/cell

     iteration #  3     ecut=   100.00 Ry     beta= 0.40
     Davidson diagonalization with overlap
     ethr =  3.59E-03,  avg # of iterations =  2.0

     negative rho (up, down):  0.000E+00 2.517E-05

     total cpu time spent up to now is    12681.9 secs

     total energy              =   -2124.56373466 Ry
     estimated scf accuracy    <      28.51999478 Ry

     total magnetization       =    11.00 Bohr mag/cell
     absolute magnetization    =    11.98 Bohr mag/cell

     iteration #  4     ecut=   100.00 Ry     beta= 0.40
     Davidson diagonalization with overlap
     ethr =  3.59E-03,  avg # of iterations =  1.5

     negative rho (up, down):  0.000E+00 5.658E-05

     total cpu time spent up to now is    15759.3 secs

     total energy              =   -2125.44960039 Ry
     estimated scf accuracy    <       7.21311218 Ry

     total magnetization       =    15.61 Bohr mag/cell
     absolute magnetization    =    15.74 Bohr mag/cell

     iteration #  5     ecut=   100.00 Ry     beta= 0.40
     Davidson diagonalization with overlap
     ethr =  3.59E-03,  avg # of iterations =  1.5

     negative rho (up, down):  0.000E+00 8.276E-05

     total cpu time spent up to now is    18832.5 secs

     total energy              =   -2125.66011199 Ry
     estimated scf accuracy    <       6.80323698 Ry

     total magnetization       =    15.11 Bohr mag/cell
     absolute magnetization    =    15.25 Bohr mag/cell

     iteration #  6     ecut=   100.00 Ry     beta= 0.40
     Davidson diagonalization with overlap
     ethr =  3.59E-03,  avg # of iterations =  1.0

     negative rho (up, down):  0.000E+00 2.261E-04

     total cpu time spent up to now is    21813.1 secs

     total energy              =   -2125.94875881 Ry
     estimated scf accuracy    <       0.71071933 Ry

     total magnetization       =    19.00 Bohr mag/cell
     absolute magnetization    =    19.00 Bohr mag/cell

     iteration #  7     ecut=   100.00 Ry     beta= 0.40
     Davidson diagonalization with overlap
     ethr =  3.76E-04,  avg # of iterations =  1.9

     negative rho (up, down):  0.000E+00 2.799E-04

     total cpu time spent up to now is    24917.8 secs

     total energy              =   -2125.94934565 Ry
     estimated scf accuracy    <       0.37156226 Ry

     total magnetization       =    19.00 Bohr mag/cell
     absolute magnetization    =    19.00 Bohr mag/cell

     iteration #  8     ecut=   100.00 Ry     beta= 0.40
     Davidson diagonalization with overlap
     ethr =  1.97E-04,  avg # of iterations =  3.2

     negative rho (up, down):  0.000E+00 4.198E-04

     total cpu time spent up to now is    28152.9 secs

     total energy              =   -2125.95551181 Ry
     estimated scf accuracy    <       0.65851155 Ry

     total magnetization       =    19.00 Bohr mag/cell
     absolute magnetization    =    19.01 Bohr mag/cell

     iteration #  9     ecut=   100.00 Ry     beta= 0.40
     Davidson diagonalization with overlap
     ethr =  1.97E-04,  avg # of iterations =  1.1

     negative rho (up, down):  0.000E+00 7.565E-04

     total cpu time spent up to now is    31158.8 secs

     total energy              =   -2125.97161438 Ry
     estimated scf accuracy    <       0.15557718 Ry

     total magnetization       =    19.00 Bohr mag/cell
     absolute magnetization    =    19.01 Bohr mag/cell

     iteration # 10     ecut=   100.00 Ry     beta= 0.40
     Davidson diagonalization with overlap
     c_bands:  1 eigenvalues not converged
     c_bands:  1 eigenvalues not converged
     c_bands:  1 eigenvalues not converged
     c_bands:  1 eigenvalues not converged
     c_bands:  1 eigenvalues not converged
     c_bands:  1 eigenvalues not converged
     c_bands:  1 eigenvalues not converged
     c_bands:  1 eigenvalues not converged
     c_bands:  1 eigenvalues not converged
     c_bands:  1 eigenvalues not converged
     ethr =  8.23E-05,  avg # of iterations = 11.1

     negative rho (up, down):  0.000E+00 8.475E-04

     total cpu time spent up to now is    35265.1 secs

     total energy              =   -2125.98230695 Ry
     estimated scf accuracy    <       0.07552617 Ry

     total magnetization       =    19.00 Bohr mag/cell
     absolute magnetization    =    19.01 Bohr mag/cell

     iteration # 11     ecut=   100.00 Ry     beta= 0.40
     Davidson diagonalization with overlap
     c_bands:  1 eigenvalues not converged
     c_bands:  1 eigenvalues not converged
     c_bands:  1 eigenvalues not converged
     c_bands:  1 eigenvalues not converged
     c_bands:  1 eigenvalues not converged
     c_bands:  1 eigenvalues not converged
     c_bands:  1 eigenvalues not converged
     c_bands:  1 eigenvalues not converged
     c_bands:  1 eigenvalues not converged
     c_bands:  1 eigenvalues not converged
     ethr =  4.00E-05,  avg # of iterations =  5.3

     negative rho (up, down):  0.000E+00 9.057E-04

     total cpu time spent up to now is    38730.9 secs

     total energy              =   -2125.98498438 Ry
     estimated scf accuracy    <       0.01601628 Ry

     total magnetization       =    19.00 Bohr mag/cell
     absolute magnetization    =    19.02 Bohr mag/cell

     iteration # 12     ecut=   100.00 Ry     beta= 0.40
     Davidson diagonalization with overlap
     c_bands:  1 eigenvalues not converged
     c_bands:  1 eigenvalues not converged
     c_bands:  1 eigenvalues not converged
     c_bands:  1 eigenvalues not converged
     c_bands:  1 eigenvalues not converged
     c_bands:  1 eigenvalues not converged
     c_bands:  1 eigenvalues not converged
     c_bands:  1 eigenvalues not converged
     c_bands:  1 eigenvalues not converged
     c_bands:  1 eigenvalues not converged
     c_bands:  1 eigenvalues not converged
     c_bands:  1 eigenvalues not converged
     ethr =  8.47E-06,  avg # of iterations =  9.9

     negative rho (up, down):  0.000E+00 9.259E-04

     total cpu time spent up to now is    42893.2 secs

     total energy              =   -2125.98626312 Ry
     estimated scf accuracy    <       0.00878678 Ry

     total magnetization       =    19.00 Bohr mag/cell
     absolute magnetization    =    19.03 Bohr mag/cell

     iteration # 13     ecut=   100.00 Ry     beta= 0.40
     Davidson diagonalization with overlap
     c_bands:  1 eigenvalues not converged
     c_bands:  1 eigenvalues not converged
     ethr =  4.65E-06,  avg # of iterations =  3.2

     negative rho (up, down):  0.000E+00 9.421E-04

     total cpu time spent up to now is    46170.3 secs

     total energy              =   -2125.98681044 Ry
     estimated scf accuracy    <       0.00093530 Ry

     total magnetization       =    19.00 Bohr mag/cell
     absolute magnetization    =    19.03 Bohr mag/cell

     iteration # 14     ecut=   100.00 Ry     beta= 0.40
     Davidson diagonalization with overlap
     c_bands:  1 eigenvalues not converged
     c_bands:  1 eigenvalues not converged
     c_bands:  1 eigenvalues not converged
     c_bands:  1 eigenvalues not converged
     c_bands:  1 eigenvalues not converged
     c_bands:  1 eigenvalues not converged
     c_bands:  1 eigenvalues not converged
     c_bands:  1 eigenvalues not converged
     ethr =  4.95E-07,  avg # of iterations =  7.3

     negative rho (up, down):  0.000E+00 9.255E-04

     total cpu time spent up to now is    52021.8 secs

     total energy              =   -2125.98739092 Ry
     estimated scf accuracy    <       0.00053513 Ry

     total magnetization       =    19.00 Bohr mag/cell
     absolute magnetization    =    19.04 Bohr mag/cell

     iteration # 15     ecut=   100.00 Ry     beta= 0.40
     Davidson diagonalization with overlap
     ethr =  2.83E-07,  avg # of iterations =  1.1

     negative rho (up, down):  0.000E+00 9.196E-04

     total cpu time spent up to now is    55027.9 secs

     total energy              =   -2125.98740847 Ry
     estimated scf accuracy    <       0.00058673 Ry

     total magnetization       =    19.00 Bohr mag/cell
     absolute magnetization    =    19.04 Bohr mag/cell

     iteration # 16     ecut=   100.00 Ry     beta= 0.40
     Davidson diagonalization with overlap
     ethr =  2.83E-07,  avg # of iterations =  1.0

     negative rho (up, down):  0.000E+00 9.146E-04

     total cpu time spent up to now is    58023.5 secs

     total energy              =   -2125.98742148 Ry
     estimated scf accuracy    <       0.00021571 Ry

     total magnetization       =    19.00 Bohr mag/cell
     absolute magnetization    =    19.04 Bohr mag/cell

     iteration # 17     ecut=   100.00 Ry     beta= 0.40
     Davidson diagonalization with overlap
     ethr =  1.14E-07,  avg # of iterations =  1.0

     negative rho (up, down):  0.000E+00 9.112E-04

     total cpu time spent up to now is    61014.8 secs

     total energy              =   -2125.98742989 Ry
     estimated scf accuracy    <       0.00006092 Ry

     total magnetization       =    19.00 Bohr mag/cell
     absolute magnetization    =    19.04 Bohr mag/cell

     iteration # 18     ecut=   100.00 Ry     beta= 0.40
     Davidson diagonalization with overlap
     ethr =  3.22E-08,  avg # of iterations =  1.0

     negative rho (up, down):  0.000E+00 9.115E-04

     total cpu time spent up to now is    64000.7 secs

     total energy              =   -2125.98743256 Ry
     estimated scf accuracy    <       0.00000819 Ry

     total magnetization       =    19.00 Bohr mag/cell
     absolute magnetization    =    19.04 Bohr mag/cell

     iteration # 19     ecut=   100.00 Ry     beta= 0.40
     Davidson diagonalization with overlap
     ethr =  4.34E-09,  avg # of iterations =  4.4

     negative rho (up, down):  0.000E+00 9.109E-04

     total cpu time spent up to now is    68107.5 secs

     total energy              =   -2125.98743578 Ry
     estimated scf accuracy    <       0.00001427 Ry

     total magnetization       =    19.00 Bohr mag/cell
     absolute magnetization    =    19.04 Bohr mag/cell

     iteration # 20     ecut=   100.00 Ry     beta= 0.40
     Davidson diagonalization with overlap
     ethr =  4.34E-09,  avg # of iterations =  1.0

     negative rho (up, down):  0.000E+00 9.098E-04

     total cpu time spent up to now is    71098.4 secs

     total energy              =   -2125.98743606 Ry
     estimated scf accuracy    <       0.00000290 Ry

     total magnetization       =    19.00 Bohr mag/cell
     absolute magnetization    =    19.04 Bohr mag/cell

     iteration # 21     ecut=   100.00 Ry     beta= 0.40
     Davidson diagonalization with overlap
     ethr =  1.53E-09,  avg # of iterations =  2.1

     negative rho (up, down):  0.000E+00 9.109E-04

     total cpu time spent up to now is    74411.8 secs

     total energy              =   -2125.98743695 Ry
     estimated scf accuracy    <       0.00000545 Ry

     total magnetization       =    19.00 Bohr mag/cell
     absolute magnetization    =    19.04 Bohr mag/cell

     iteration # 22     ecut=   100.00 Ry     beta= 0.40
     Davidson diagonalization with overlap
     ethr =  1.53E-09,  avg # of iterations =  1.0

     negative rho (up, down):  0.000E+00 9.116E-04

     total cpu time spent up to now is    77400.3 secs

     total energy              =   -2125.98743704 Ry
     estimated scf accuracy    <       0.00000139 Ry

     total magnetization       =    19.00 Bohr mag/cell
     absolute magnetization    =    19.04 Bohr mag/cell

     iteration # 23     ecut=   100.00 Ry     beta= 0.40
     Davidson diagonalization with overlap
     ethr =  7.35E-10,  avg # of iterations =  1.3

     negative rho (up, down):  0.000E+00 9.117E-04

     total cpu time spent up to now is    80438.5 secs

     total energy              =   -2125.98743718 Ry
     estimated scf accuracy    <       0.00000042 Ry

     total magnetization       =    19.00 Bohr mag/cell
     absolute magnetization    =    19.04 Bohr mag/cell

     iteration # 24     ecut=   100.00 Ry     beta= 0.40
     Davidson diagonalization with overlap
     ethr =  2.21E-10,  avg # of iterations =  2.1

     negative rho (up, down):  0.000E+00 9.117E-04

     total cpu time spent up to now is    83707.2 secs

     total energy              =   -2125.98743724 Ry
     estimated scf accuracy    <       0.00000014 Ry

     total magnetization       =    19.00 Bohr mag/cell
     absolute magnetization    =    19.04 Bohr mag/cell

     iteration # 25     ecut=   100.00 Ry     beta= 0.40
     Davidson diagonalization with overlap
     ethr =  7.45E-11,  avg # of iterations =  1.7

     negative rho (up, down):  0.000E+00 9.115E-04

     total cpu time spent up to now is    86820.6 secs

     total energy              =   -2125.98743726 Ry
     estimated scf accuracy    <       0.00000003 Ry

     total magnetization       =    19.00 Bohr mag/cell
     absolute magnetization    =    19.04 Bohr mag/cell

     iteration # 26     ecut=   100.00 Ry     beta= 0.40
     Davidson diagonalization with overlap
     ethr =  1.37E-11,  avg # of iterations =  3.1

     negative rho (up, down):  0.000E+00 9.114E-04

     total cpu time spent up to now is    90764.7 secs

     total energy              =   -2125.98743727 Ry
     estimated scf accuracy    <       0.00000001 Ry

     total magnetization       =    19.00 Bohr mag/cell
     absolute magnetization    =    19.04 Bohr mag/cell

     iteration # 27     ecut=   100.00 Ry     beta= 0.40
     Davidson diagonalization with overlap
     ethr =  5.31E-12,  avg # of iterations =  2.3

     negative rho (up, down):  0.000E+00 9.115E-04

     total cpu time spent up to now is    93992.5 secs

     total energy              =   -2125.98743727 Ry
     estimated scf accuracy    <          4.4E-09 Ry

     total magnetization       =    19.00 Bohr mag/cell
     absolute magnetization    =    19.04 Bohr mag/cell

     iteration # 28     ecut=   100.00 Ry     beta= 0.40
     Davidson diagonalization with overlap
     ethr =  2.32E-12,  avg # of iterations =  2.1

     negative rho (up, down):  0.000E+00 9.114E-04

     total cpu time spent up to now is    97165.9 secs

     total energy              =   -2125.98743727 Ry
     estimated scf accuracy    <          5.0E-09 Ry

     total magnetization       =    19.00 Bohr mag/cell
     absolute magnetization    =    19.04 Bohr mag/cell

     iteration # 29     ecut=   100.00 Ry     beta= 0.40
     Davidson diagonalization with overlap
     ethr =  2.32E-12,  avg # of iterations =  1.0

     negative rho (up, down):  0.000E+00 9.114E-04

     total cpu time spent up to now is   100153.9 secs

     total energy              =   -2125.98743727 Ry
     estimated scf accuracy    <          3.5E-09 Ry

     total magnetization       =    19.00 Bohr mag/cell
     absolute magnetization    =    19.04 Bohr mag/cell

     iteration # 30     ecut=   100.00 Ry     beta= 0.40
     Davidson diagonalization with overlap
     ethr =  1.83E-12,  avg # of iterations =  1.0

     negative rho (up, down):  0.000E+00 9.114E-04

     total cpu time spent up to now is   103135.0 secs

     total energy              =   -2125.98743727 Ry
     estimated scf accuracy    <          1.5E-09 Ry

     total magnetization       =    19.00 Bohr mag/cell
     absolute magnetization    =    19.04 Bohr mag/cell

     iteration # 31     ecut=   100.00 Ry     beta= 0.40
     Davidson diagonalization with overlap
     ethr =  7.93E-13,  avg # of iterations =  1.5

     negative rho (up, down):  0.000E+00 9.114E-04

     Magnetic moment per site:
     atom:    1    charge:    7.8843    magn:    0.0013    constr:    0.0000
     atom:    2    charge:   12.7587    magn:    3.5583    constr:    0.0000
     atom:    3    charge:   12.7598    magn:    3.5614    constr:    0.0000
     atom:    4    charge:   12.7636    magn:    3.5511    constr:    0.0000
     atom:    5    charge:   12.7523    magn:    3.5777    constr:    0.0000
     atom:    6    charge:    0.7294    magn:    0.0095    constr:    0.0000
     atom:    7    charge:    0.7240    magn:    0.0105    constr:    0.0000
     atom:    8    charge:    0.7292    magn:    0.0096    constr:    0.0000
     atom:    9    charge:    0.7225    magn:    0.0103    constr:    0.0000
     atom:   10    charge:    3.9982    magn:    0.1476    constr:    0.0000
     atom:   11    charge:    4.0012    magn:    0.1080    constr:    0.0000
     atom:   12    charge:    3.9975    magn:    0.1298    constr:    0.0000
     atom:   13    charge:    4.0013    magn:    0.1119    constr:    0.0000
     atom:   14    charge:    4.0494    magn:    0.1067    constr:    0.0000
     atom:   15    charge:    4.0494    magn:    0.0867    constr:    0.0000
     atom:   16    charge:    4.0521    magn:    0.1107    constr:    0.0000
     atom:   17    charge:    4.0581    magn:    0.0884    constr:    0.0000
     atom:   18    charge:    4.0074    magn:    0.1319    constr:    0.0000
     atom:   19    charge:    3.9930    magn:    0.1400    constr:    0.0000
     atom:   20    charge:    3.9898    magn:    0.1233    constr:    0.0000
     atom:   21    charge:    3.9978    magn:    0.1529    constr:    0.0000
     atom:   22    charge:    4.0112    magn:    0.1323    constr:    0.0000
     atom:   23    charge:    3.9928    magn:    0.1375    constr:    0.0000
     atom:   24    charge:    3.9903    magn:    0.1101    constr:    0.0000
     atom:   25    charge:    4.0024    magn:    0.1565    constr:    0.0000

     total cpu time spent up to now is   106211.5 secs

     End of self-consistent calculation

 ------ SPIN UP ------------


          k = 0.0000 0.0000 0.0000 ( 34615 PWs)   bands (ev):

   -84.3848 -84.3308 -84.2178 -84.2120 -50.4906 -50.4843 -50.4206 -50.4170
   -50.3902 -50.3675 -50.3272 -50.2560 -50.1430 -50.1420 -50.0493 -50.0319
   -44.3745 -16.5497 -16.3982 -16.3710 -16.1105 -15.8951 -15.7290 -15.5719
   -13.7661 -13.5392 -13.4964 -13.3927 -13.2904 -13.2314 -13.1101 -13.0371
   -13.0071 -12.9516 -12.8385 -12.7832  -3.8835  -3.3991  -3.1614  -2.9125
    -1.8909  -1.7000  -1.4929  -1.4614  -1.1756  -0.9698  -0.8901  -0.8762
    -0.8426  -0.6443  -0.5666  -0.3902   0.1972   0.3298   0.4986   0.7625
     0.7757   0.8634   0.8803   1.0980   1.1870   1.2758   1.3925   1.4276
     1.5331   1.6259   1.8982   1.9855   2.0317   2.0429   2.2522   2.3495
     2.4034   2.4872   2.6130   2.6984   2.9227   2.9793   3.0351   3.0867
     3.2233   3.3141   3.4792   3.5898   3.7033   3.7337   3.7455   3.9030
     3.9565   4.0722   4.1713   4.2135   4.4084   4.5164   4.5626   4.6059
     4.6592   4.8359   4.8462   4.9677   5.1334   5.2107   5.6183   5.7635
     9.9974  11.8557  12.0989  12.9202  13.0755  13.8561  13.8659  14.2610
    14.3740  14.4585

     occupation numbers 
     1.0000   1.0000   1.0000   1.0000   1.0000   1.0000   1.0000   1.0000
     1.0000   1.0000   1.0000   1.0000   1.0000   1.0000   1.0000   1.0000
     1.0000   1.0000   1.0000   1.0000   1.0000   1.0000   1.0000   1.0000
     1.0000   1.0000   1.0000   1.0000   1.0000   1.0000   1.0000   1.0000
     1.0000   1.0000   1.0000   1.0000   1.0000   1.0000   1.0000   1.0000
     1.0000   1.0000   1.0000   1.0000   1.0000   1.0000   1.0000   1.0000
     1.0000   1.0000   1.0000   1.0000   1.0000   1.0000   1.0000   1.0000
     1.0000   1.0000   1.0000   1.0000   1.0000   1.0000   1.0000   1.0000
     1.0000   1.0000   1.0000   1.0000   1.0000   1.0000   1.0000   1.0000
     1.0000   1.0000   1.0000   1.0000   1.0000   1.0000   1.0000   1.0000
     1.0000   1.0000   1.0000   1.0000   1.0000   1.0000   1.0000   1.0000
     1.0000   1.0000   1.0000   1.0000   1.0000   1.0000   1.0000   1.0000
     1.0000   1.0000   1.0000   1.0000   1.0000   1.0000   1.0000   1.0000
     0.0000   0.0000   0.0000   0.0000   0.0000   0.0000   0.0000   0.0000
     0.0000   0.0000

          k = 0.0000 0.0000 0.2220 ( 34593 PWs)   bands (ev):

   -84.3848 -84.3308 -84.2178 -84.2120 -50.4906 -50.4843 -50.4206 -50.4170
   -50.3902 -50.3675 -50.3272 -50.2560 -50.1430 -50.1420 -50.0493 -50.0319
   -44.3745 -16.5494 -16.3983 -16.3762 -16.0920 -15.8905 -15.7210 -15.5740
   -13.7646 -13.5575 -13.4858 -13.3909 -13.2984 -13.2401 -13.1171 -13.0460
   -13.0122 -12.9538 -12.8490 -12.7766  -3.8486  -3.3871  -3.1632  -2.9070
    -1.8665  -1.7184  -1.5150  -1.3983  -1.1711  -0.9895  -0.9004  -0.8448
    -0.7931  -0.6711  -0.5695  -0.3953   0.2240   0.3362   0.5062   0.7346
     0.7602   0.8413   0.9071   1.0588   1.2353   1.2874   1.3499   1.4570
     1.5080   1.6434   1.8818   1.9668   2.0120   2.1344   2.2642   2.3395
     2.3896   2.4927   2.5901   2.7238   2.9059   2.9470   2.9748   3.0593
     3.2362   3.3186   3.4775   3.5331   3.6802   3.7358   3.7655   3.8680
     3.9414   4.0925   4.1619   4.2286   4.3657   4.5228   4.5656   4.6055
     4.6723   4.8283   4.8404   4.9891   5.1443   5.2165   5.6091   5.7658
    10.1419  11.9115  12.1569  12.9311  13.1405  13.7410  13.9177  14.2429
    14.3063  14.4497

     occupation numbers 
     1.0000   1.0000   1.0000   1.0000   1.0000   1.0000   1.0000   1.0000
     1.0000   1.0000   1.0000   1.0000   1.0000   1.0000   1.0000   1.0000
     1.0000   1.0000   1.0000   1.0000   1.0000   1.0000   1.0000   1.0000
     1.0000   1.0000   1.0000   1.0000   1.0000   1.0000   1.0000   1.0000
     1.0000   1.0000   1.0000   1.0000   1.0000   1.0000   1.0000   1.0000
     1.0000   1.0000   1.0000   1.0000   1.0000   1.0000   1.0000   1.0000
     1.0000   1.0000   1.0000   1.0000   1.0000   1.0000   1.0000   1.0000
     1.0000   1.0000   1.0000   1.0000   1.0000   1.0000   1.0000   1.0000
     1.0000   1.0000   1.0000   1.0000   1.0000   1.0000   1.0000   1.0000
     1.0000   1.0000   1.0000   1.0000   1.0000   1.0000   1.0000   1.0000
     1.0000   1.0000   1.0000   1.0000   1.0000   1.0000   1.0000   1.0000
     1.0000   1.0000   1.0000   1.0000   1.0000   1.0000   1.0000   1.0000
     1.0000   1.0000   1.0000   1.0000   1.0000   1.0000   1.0000   1.0000
     0.0000   0.0000   0.0000   0.0000   0.0000   0.0000   0.0000   0.0000
     0.0000   0.0000

          k = 0.0000 0.0000 0.4441 ( 34664 PWs)   bands (ev):

   -84.3848 -84.3308 -84.2178 -84.2120 -50.4906 -50.4843 -50.4206 -50.4170
   -50.3902 -50.3675 -50.3272 -50.2560 -50.1430 -50.1420 -50.0494 -50.0319
   -44.3745 -16.5488 -16.3993 -16.3867 -16.0442 -15.8793 -15.7003 -15.5818
   -13.7609 -13.5930 -13.4718 -13.3883 -13.3189 -13.2610 -13.1312 -13.0622
   -13.0294 -12.9635 -12.8683 -12.7665  -3.7556  -3.3535  -3.1655  -2.9077
    -1.8423  -1.7134  -1.4805  -1.3391  -1.1586  -1.0148  -0.9077  -0.7929
    -0.7177  -0.6912  -0.5880  -0.4201   0.2715   0.3581   0.5464   0.6631
     0.7506   0.8269   0.9311   1.1147   1.2313   1.2824   1.3263   1.4575
     1.5305   1.6812   1.8243   1.9308   2.0559   2.1603   2.2430   2.3094
     2.4106   2.5049   2.5718   2.6865   2.7546   2.8685   2.9915   3.0457
     3.1960   3.2948   3.3871   3.4820   3.5639   3.7744   3.8027   3.8556
     3.9725   4.1111   4.1358   4.2211   4.3699   4.5139   4.5512   4.6002
     4.6759   4.8061   4.8410   5.0415   5.1583   5.2343   5.6011   5.7646
    10.5314  12.0513  12.2946  12.9859  13.2802  13.5229  13.9380  14.1739
    14.2042  14.3847

     occupation numbers 
     1.0000   1.0000   1.0000   1.0000   1.0000   1.0000   1.0000   1.0000
     1.0000   1.0000   1.0000   1.0000   1.0000   1.0000   1.0000   1.0000
     1.0000   1.0000   1.0000   1.0000   1.0000   1.0000   1.0000   1.0000
     1.0000   1.0000   1.0000   1.0000   1.0000   1.0000   1.0000   1.0000
     1.0000   1.0000   1.0000   1.0000   1.0000   1.0000   1.0000   1.0000
     1.0000   1.0000   1.0000   1.0000   1.0000   1.0000   1.0000   1.0000
     1.0000   1.0000   1.0000   1.0000   1.0000   1.0000   1.0000   1.0000
     1.0000   1.0000   1.0000   1.0000   1.0000   1.0000   1.0000   1.0000
     1.0000   1.0000   1.0000   1.0000   1.0000   1.0000   1.0000   1.0000
     1.0000   1.0000   1.0000   1.0000   1.0000   1.0000   1.0000   1.0000
     1.0000   1.0000   1.0000   1.0000   1.0000   1.0000   1.0000   1.0000
     1.0000   1.0000   1.0000   1.0000   1.0000   1.0000   1.0000   1.0000
     1.0000   1.0000   1.0000   1.0000   1.0000   1.0000   1.0000   1.0000
     0.0000   0.0000   0.0000   0.0000   0.0000   0.0000   0.0000   0.0000
     0.0000   0.0000

          k = 0.0000 0.0000 0.6661 ( 34722 PWs)   bands (ev):

   -84.3848 -84.3308 -84.2178 -84.2120 -50.4906 -50.4843 -50.4206 -50.4170
   -50.3902 -50.3675 -50.3272 -50.2560 -50.1430 -50.1420 -50.0494 -50.0319
   -44.3745 -16.5481 -16.4036 -16.3928 -15.9845 -15.8692 -15.6744 -15.5969
   -13.7556 -13.6305 -13.4633 -13.3913 -13.3401 -13.2811 -13.1421 -13.0794
   -13.0496 -12.9779 -12.8831 -12.7612  -3.6381  -3.3055  -3.1707  -2.9348
    -1.8448  -1.6673  -1.4000  -1.3058  -1.1460  -1.0440  -0.9052  -0.7908
    -0.7001  -0.6630  -0.5479  -0.4770   0.2774   0.4014   0.5892   0.6578
     0.7827   0.8764   0.9806   1.1733   1.2425   1.2830   1.3525   1.4333
     1.5737   1.6945   1.7515   1.8603   2.0678   2.1172   2.1280   2.2825
     2.3737   2.4560   2.5426   2.6411   2.7176   2.7873   2.9711   3.0171
     3.1409   3.2432   3.2821   3.3761   3.5532   3.8123   3.8600   3.9199
     3.9832   4.1002   4.1523   4.2332   4.3960   4.5067   4.5350   4.5783
     4.6549   4.7528   4.8592   5.0990   5.1627   5.2537   5.6181   5.7510
    11.0650  12.2039  12.4281  12.9733  13.1794  13.5869  13.9087  14.0554
    14.1482  14.3130

     occupation numbers 
     1.0000   1.0000   1.0000   1.0000   1.0000   1.0000   1.0000   1.0000
     1.0000   1.0000   1.0000   1.0000   1.0000   1.0000   1.0000   1.0000
     1.0000   1.0000   1.0000   1.0000   1.0000   1.0000   1.0000   1.0000
     1.0000   1.0000   1.0000   1.0000   1.0000   1.0000   1.0000   1.0000
     1.0000   1.0000   1.0000   1.0000   1.0000   1.0000   1.0000   1.0000
     1.0000   1.0000   1.0000   1.0000   1.0000   1.0000   1.0000   1.0000
     1.0000   1.0000   1.0000   1.0000   1.0000   1.0000   1.0000   1.0000
     1.0000   1.0000   1.0000   1.0000   1.0000   1.0000   1.0000   1.0000
     1.0000   1.0000   1.0000   1.0000   1.0000   1.0000   1.0000   1.0000
     1.0000   1.0000   1.0000   1.0000   1.0000   1.0000   1.0000   1.0000
     1.0000   1.0000   1.0000   1.0000   1.0000   1.0000   1.0000   1.0000
     1.0000   1.0000   1.0000   1.0000   1.0000   1.0000   1.0000   1.0000
     1.0000   1.0000   1.0000   1.0000   1.0000   1.0000   1.0000   1.0000
     0.0000   0.0000   0.0000   0.0000   0.0000   0.0000   0.0000   0.0000
     0.0000   0.0000

          k = 0.0000 0.0000 0.8882 ( 34692 PWs)   bands (ev):

   -84.3848 -84.3308 -84.2178 -84.2120 -50.4906 -50.4843 -50.4206 -50.4170
   -50.3902 -50.3675 -50.3272 -50.2560 -50.1430 -50.1420 -50.0494 -50.0319
   -44.3745 -16.5477 -16.4084 -16.3940 -15.9371 -15.8676 -15.6529 -15.6150
   -13.7501 -13.6572 -13.4605 -13.3975 -13.3515 -13.2909 -13.1474 -13.0951
   -13.0583 -12.9884 -12.8900 -12.7603  -3.5499  -3.2636  -3.1794  -2.9732
    -1.8370  -1.6446  -1.3294  -1.2842  -1.1427  -1.0749  -0.8944  -0.8318
    -0.6719  -0.6456  -0.5416  -0.4916   0.2670   0.4443   0.5941   0.6297
     0.9210   0.9791   1.0816   1.1646   1.2521   1.3042   1.3983   1.4258
     1.5980   1.6550   1.6876   1.7520   1.9510   1.9983   2.1247   2.2607
     2.3634   2.4203   2.5168   2.5834   2.6966   2.7839   2.8830   3.0123
     3.1513   3.1907   3.2673   3.3218   3.5524   3.8214   3.8907   3.9552
     4.0208   4.1101   4.1645   4.2673   4.4238   4.4793   4.5369   4.5552
     4.6369   4.6883   4.8783   5.1400   5.1605   5.2624   5.6508   5.7269
    11.5935  12.2744  12.4566  12.6615  13.2054  13.7847  13.8706  13.9973
    14.1523  14.2548

     occupation numbers 
     1.0000   1.0000   1.0000   1.0000   1.0000   1.0000   1.0000   1.0000
     1.0000   1.0000   1.0000   1.0000   1.0000   1.0000   1.0000   1.0000
     1.0000   1.0000   1.0000   1.0000   1.0000   1.0000   1.0000   1.0000
     1.0000   1.0000   1.0000   1.0000   1.0000   1.0000   1.0000   1.0000
     1.0000   1.0000   1.0000   1.0000   1.0000   1.0000   1.0000   1.0000
     1.0000   1.0000   1.0000   1.0000   1.0000   1.0000   1.0000   1.0000
     1.0000   1.0000   1.0000   1.0000   1.0000   1.0000   1.0000   1.0000
     1.0000   1.0000   1.0000   1.0000   1.0000   1.0000   1.0000   1.0000
     1.0000   1.0000   1.0000   1.0000   1.0000   1.0000   1.0000   1.0000
     1.0000   1.0000   1.0000   1.0000   1.0000   1.0000   1.0000   1.0000
     1.0000   1.0000   1.0000   1.0000   1.0000   1.0000   1.0000   1.0000
     1.0000   1.0000   1.0000   1.0000   1.0000   1.0000   1.0000   1.0000
     1.0000   1.0000   1.0000   1.0000   1.0000   1.0000   1.0000   1.0000
     0.0000   0.0000   0.0000   0.0000   0.0000   0.0000   0.0000   0.0000
     0.0000   0.0000

          k = 0.0000 0.2271 0.0000 ( 34607 PWs)   bands (ev):

   -84.3848 -84.3308 -84.2178 -84.2120 -50.4906 -50.4843 -50.4206 -50.4170
   -50.3902 -50.3675 -50.3272 -50.2560 -50.1430 -50.1420 -50.0493 -50.0319
   -44.3745 -16.5659 -16.4003 -16.3684 -16.0780 -15.8824 -15.7304 -15.5915
   -13.7726 -13.5458 -13.4928 -13.3997 -13.2872 -13.2250 -13.1150 -13.0388
   -13.0095 -12.9566 -12.8386 -12.7822  -3.8471  -3.3643  -3.1760  -2.9060
    -1.8800  -1.6715  -1.5021  -1.4297  -1.1860  -0.9726  -0.9000  -0.8427
    -0.8170  -0.6427  -0.5720  -0.3699   0.1887   0.3067   0.4981   0.7168
     0.7473   0.8026   0.8987   1.0644   1.1669   1.2769   1.3993   1.4603
     1.5435   1.6351   1.8937   1.9871   2.0283   2.0622   2.2402   2.3522
     2.3706   2.4457   2.6361   2.6751   2.8253   2.9299   3.0620   3.1274
     3.2426   3.2947   3.4600   3.5420   3.6390   3.7181   3.8278   3.9102
     3.9611   4.0311   4.1342   4.2378   4.4360   4.4872   4.5428   4.6039
     4.6584   4.7311   4.8685   4.9730   5.2265   5.3428   5.6647   5.7691
    10.1527  11.9316  12.1891  12.8287  13.1273  13.7122  13.8916  14.0997
    14.3976  14.4941

     occupation numbers 
     1.0000   1.0000   1.0000   1.0000   1.0000   1.0000   1.0000   1.0000
     1.0000   1.0000   1.0000   1.0000   1.0000   1.0000   1.0000   1.0000
     1.0000   1.0000   1.0000   1.0000   1.0000   1.0000   1.0000   1.0000
     1.0000   1.0000   1.0000   1.0000   1.0000   1.0000   1.0000   1.0000
     1.0000   1.0000   1.0000   1.0000   1.0000   1.0000   1.0000   1.0000
     1.0000   1.0000   1.0000   1.0000   1.0000   1.0000   1.0000   1.0000
     1.0000   1.0000   1.0000   1.0000   1.0000   1.0000   1.0000   1.0000
     1.0000   1.0000   1.0000   1.0000   1.0000   1.0000   1.0000   1.0000
     1.0000   1.0000   1.0000   1.0000   1.0000   1.0000   1.0000   1.0000
     1.0000   1.0000   1.0000   1.0000   1.0000   1.0000   1.0000   1.0000
     1.0000   1.0000   1.0000   1.0000   1.0000   1.0000   1.0000   1.0000
     1.0000   1.0000   1.0000   1.0000   1.0000   1.0000   1.0000   1.0000
     1.0000   1.0000   1.0000   1.0000   1.0000   1.0000   1.0000   1.0000
     0.0000   0.0000   0.0000   0.0000   0.0000   0.0000   0.0000   0.0000
     0.0000   0.0000

          k = 0.0000 0.2271 0.2220 ( 34613 PWs)   bands (ev):

   -84.3848 -84.3308 -84.2178 -84.2120 -50.4906 -50.4843 -50.4206 -50.4170
   -50.3902 -50.3675 -50.3272 -50.2560 -50.1430 -50.1420 -50.0493 -50.0319
   -44.3745 -16.5675 -16.4012 -16.3716 -16.0593 -15.8718 -15.7260 -15.5949
   -13.7688 -13.5650 -13.4834 -13.3892 -13.3096 -13.2455 -13.1158 -13.0414
   -13.0071 -12.9592 -12.8480 -12.7799  -3.8212  -3.3603  -3.1664  -2.8846
    -1.8620  -1.6927  -1.5184  -1.3587  -1.1712  -0.9584  -0.9035  -0.8510
    -0.8203  -0.6699  -0.5734  -0.3480   0.2357   0.2914   0.5087   0.7245
     0.7498   0.8150   0.9099   1.0477   1.1673   1.2514   1.3702   1.4452
     1.5021   1.6157   1.8754   1.9538   2.0053   2.1502   2.2879   2.3402
     2.3884   2.4245   2.5978   2.6948   2.8653   2.9229   3.0126   3.1307
     3.2639   3.3329   3.4056   3.5205   3.6347   3.7045   3.7885   3.8638
     3.9282   4.0414   4.1126   4.2474   4.4065   4.5033   4.5654   4.5982
     4.6667   4.7295   4.8756   5.0048   5.2292   5.3571   5.6309   5.7810
    10.2936  11.9932  12.2454  12.8244  13.2138  13.6777  13.8729  14.1402
    14.3394  14.4582

     occupation numbers 
     1.0000   1.0000   1.0000   1.0000   1.0000   1.0000   1.0000   1.0000
     1.0000   1.0000   1.0000   1.0000   1.0000   1.0000   1.0000   1.0000
     1.0000   1.0000   1.0000   1.0000   1.0000   1.0000   1.0000   1.0000
     1.0000   1.0000   1.0000   1.0000   1.0000   1.0000   1.0000   1.0000
     1.0000   1.0000   1.0000   1.0000   1.0000   1.0000   1.0000   1.0000
     1.0000   1.0000   1.0000   1.0000   1.0000   1.0000   1.0000   1.0000
     1.0000   1.0000   1.0000   1.0000   1.0000   1.0000   1.0000   1.0000
     1.0000   1.0000   1.0000   1.0000   1.0000   1.0000   1.0000   1.0000
     1.0000   1.0000   1.0000   1.0000   1.0000   1.0000   1.0000   1.0000
     1.0000   1.0000   1.0000   1.0000   1.0000   1.0000   1.0000   1.0000
     1.0000   1.0000   1.0000   1.0000   1.0000   1.0000   1.0000   1.0000
     1.0000   1.0000   1.0000   1.0000   1.0000   1.0000   1.0000   1.0000
     1.0000   1.0000   1.0000   1.0000   1.0000   1.0000   1.0000   1.0000
     0.0000   0.0000   0.0000   0.0000   0.0000   0.0000   0.0000   0.0000
     0.0000   0.0000

          k = 0.0000 0.2271 0.4441 ( 34660 PWs)   bands (ev):

   -84.3848 -84.3308 -84.2178 -84.2120 -50.4906 -50.4843 -50.4206 -50.4170
   -50.3902 -50.3675 -50.3272 -50.2560 -50.1430 -50.1420 -50.0494 -50.0319
   -44.3745 -16.5661 -16.4023 -16.3811 -16.0155 -15.8552 -15.7087 -15.6015
   -13.7622 -13.5973 -13.4722 -13.3778 -13.3403 -13.2777 -13.1299 -13.0565
   -13.0213 -12.9639 -12.8665 -12.7710  -3.7362  -3.3362  -3.1552  -2.8651
    -1.8386  -1.7119  -1.4647  -1.3024  -1.1507  -0.9653  -0.9370  -0.8107
    -0.7466  -0.6945  -0.5851  -0.3710   0.2566   0.3303   0.5442   0.6946
     0.7427   0.8506   0.9130   1.0571   1.1989   1.2360   1.3155   1.3915
     1.5510   1.6364   1.7909   1.9355   2.0041   2.2034   2.2777   2.3059
     2.3539   2.5063   2.5537   2.7196   2.7532   2.9232   2.9831   3.1020
     3.2188   3.2964   3.3583   3.4684   3.5339   3.7141   3.7577   3.8381
     3.9519   4.0470   4.0963   4.2298   4.4338   4.4768   4.5409   4.6183
     4.6902   4.7369   4.8845   5.0518   5.2476   5.3593   5.6034   5.7901
    10.6687  12.1366  12.3721  12.8884  13.3595  13.5272  13.8603  14.1720
    14.2124  14.3691

     occupation numbers 
     1.0000   1.0000   1.0000   1.0000   1.0000   1.0000   1.0000   1.0000
     1.0000   1.0000   1.0000   1.0000   1.0000   1.0000   1.0000   1.0000
     1.0000   1.0000   1.0000   1.0000   1.0000   1.0000   1.0000   1.0000
     1.0000   1.0000   1.0000   1.0000   1.0000   1.0000   1.0000   1.0000
     1.0000   1.0000   1.0000   1.0000   1.0000   1.0000   1.0000   1.0000
     1.0000   1.0000   1.0000   1.0000   1.0000   1.0000   1.0000   1.0000
     1.0000   1.0000   1.0000   1.0000   1.0000   1.0000   1.0000   1.0000
     1.0000   1.0000   1.0000   1.0000   1.0000   1.0000   1.0000   1.0000
     1.0000   1.0000   1.0000   1.0000   1.0000   1.0000   1.0000   1.0000
     1.0000   1.0000   1.0000   1.0000   1.0000   1.0000   1.0000   1.0000
     1.0000   1.0000   1.0000   1.0000   1.0000   1.0000   1.0000   1.0000
     1.0000   1.0000   1.0000   1.0000   1.0000   1.0000   1.0000   1.0000
     1.0000   1.0000   1.0000   1.0000   1.0000   1.0000   1.0000   1.0000
     0.0000   0.0000   0.0000   0.0000   0.0000   0.0000   0.0000   0.0000
     0.0000   0.0000

          k = 0.0000 0.2271 0.6661 ( 34677 PWs)   bands (ev):

   -84.3848 -84.3308 -84.2178 -84.2120 -50.4906 -50.4843 -50.4206 -50.4170
   -50.3902 -50.3675 -50.3272 -50.2560 -50.1430 -50.1420 -50.0494 -50.0319
   -44.3745 -16.5624 -16.4047 -16.3897 -15.9627 -15.8419 -15.6848 -15.6125
   -13.7553 -13.6306 -13.4656 -13.3793 -13.3622 -13.3018 -13.1465 -13.0765
   -13.0414 -12.9735 -12.8811 -12.7642  -3.6211  -3.2987  -3.1515  -2.8749
    -1.8440  -1.6740  -1.3856  -1.2705  -1.1353  -1.0158  -0.9249  -0.7907
    -0.7038  -0.6677  -0.5672  -0.4414   0.2478   0.3804   0.5615   0.7148
     0.7946   0.8805   0.9503   1.1208   1.1882   1.2448   1.3266   1.4163
     1.5810   1.6471   1.7099   1.8701   2.0253   2.1210   2.1741   2.3007
     2.3391   2.4602   2.5533   2.5901   2.7929   2.8184   3.0213   3.0515
     3.1226   3.1965   3.3210   3.3882   3.4918   3.7367   3.7954   3.8634
     3.9926   4.0466   4.1021   4.2940   4.4181   4.4422   4.5112   4.6340
     4.6737   4.7403   4.8896   5.1057   5.2710   5.3297   5.6298   5.7807
    11.1804  12.2893  12.4901  13.0032  13.1096  13.6644  13.8753  14.0217
    14.1658  14.3200

     occupation numbers 
     1.0000   1.0000   1.0000   1.0000   1.0000   1.0000   1.0000   1.0000
     1.0000   1.0000   1.0000   1.0000   1.0000   1.0000   1.0000   1.0000
     1.0000   1.0000   1.0000   1.0000   1.0000   1.0000   1.0000   1.0000
     1.0000   1.0000   1.0000   1.0000   1.0000   1.0000   1.0000   1.0000
     1.0000   1.0000   1.0000   1.0000   1.0000   1.0000   1.0000   1.0000
     1.0000   1.0000   1.0000   1.0000   1.0000   1.0000   1.0000   1.0000
     1.0000   1.0000   1.0000   1.0000   1.0000   1.0000   1.0000   1.0000
     1.0000   1.0000   1.0000   1.0000   1.0000   1.0000   1.0000   1.0000
     1.0000   1.0000   1.0000   1.0000   1.0000   1.0000   1.0000   1.0000
     1.0000   1.0000   1.0000   1.0000   1.0000   1.0000   1.0000   1.0000
     1.0000   1.0000   1.0000   1.0000   1.0000   1.0000   1.0000   1.0000
     1.0000   1.0000   1.0000   1.0000   1.0000   1.0000   1.0000   1.0000
     1.0000   1.0000   1.0000   1.0000   1.0000   1.0000   1.0000   1.0000
     0.0000   0.0000   0.0000   0.0000   0.0000   0.0000   0.0000   0.0000
     0.0000   0.0000

          k = 0.0000 0.2271 0.8882 ( 34672 PWs)   bands (ev):

   -84.3848 -84.3308 -84.2178 -84.2120 -50.4906 -50.4843 -50.4206 -50.4170
   -50.3902 -50.3675 -50.3272 -50.2560 -50.1430 -50.1420 -50.0494 -50.0319
   -44.3745 -16.5581 -16.4079 -16.3939 -15.9221 -15.8427 -15.6631 -15.6238
   -13.7501 -13.6546 -13.4636 -13.3942 -13.3641 -13.3052 -13.1556 -13.0939
   -13.0589 -12.9816 -12.8880 -12.7605  -3.5220  -3.2570  -3.1635  -2.9226
    -1.8314  -1.6473  -1.3225  -1.2550  -1.1357  -1.0547  -0.9046  -0.8277
    -0.6739  -0.6356  -0.5510  -0.4733   0.2266   0.4089   0.5646   0.6930
     0.8968   0.9506   1.0375   1.1136   1.1991   1.3274   1.3750   1.4239
     1.5864   1.6327   1.6780   1.8057   1.9255   2.0187   2.1317   2.2419
     2.3790   2.4538   2.4742   2.5351   2.7223   2.8289   2.8926   3.0442
     3.1346   3.1799   3.2551   3.3268   3.5105   3.7735   3.8493   3.8856
     4.0069   4.0556   4.1477   4.3168   4.3952   4.4336   4.5053   4.6128
     4.6576   4.7369   4.8875   5.1449   5.2619   5.3250   5.6769   5.7561
    11.6741  12.3768  12.5002  12.7518  13.1250  13.8031  13.9028  13.9512
    14.1750  14.2963

     occupation numbers 
     1.0000   1.0000   1.0000   1.0000   1.0000   1.0000   1.0000   1.0000
     1.0000   1.0000   1.0000   1.0000   1.0000   1.0000   1.0000   1.0000
     1.0000   1.0000   1.0000   1.0000   1.0000   1.0000   1.0000   1.0000
     1.0000   1.0000   1.0000   1.0000   1.0000   1.0000   1.0000   1.0000
     1.0000   1.0000   1.0000   1.0000   1.0000   1.0000   1.0000   1.0000
     1.0000   1.0000   1.0000   1.0000   1.0000   1.0000   1.0000   1.0000
     1.0000   1.0000   1.0000   1.0000   1.0000   1.0000   1.0000   1.0000
     1.0000   1.0000   1.0000   1.0000   1.0000   1.0000   1.0000   1.0000
     1.0000   1.0000   1.0000   1.0000   1.0000   1.0000   1.0000   1.0000
     1.0000   1.0000   1.0000   1.0000   1.0000   1.0000   1.0000   1.0000
     1.0000   1.0000   1.0000   1.0000   1.0000   1.0000   1.0000   1.0000
     1.0000   1.0000   1.0000   1.0000   1.0000   1.0000   1.0000   1.0000
     1.0000   1.0000   1.0000   1.0000   1.0000   1.0000   1.0000   1.0000
     0.0000   0.0000   0.0000   0.0000   0.0000   0.0000   0.0000   0.0000
     0.0000   0.0000

          k = 0.0000 0.4542 0.0000 ( 34657 PWs)   bands (ev):

   -84.3848 -84.3308 -84.2178 -84.2120 -50.4906 -50.4843 -50.4206 -50.4170
   -50.3902 -50.3675 -50.3272 -50.2560 -50.1430 -50.1420 -50.0493 -50.0319
   -44.3745 -16.5976 -16.4022 -16.3652 -16.0002 -15.8506 -15.7364 -15.6455
   -13.7857 -13.5569 -13.4941 -13.4105 -13.2773 -13.2106 -13.1298 -13.0415
   -13.0181 -12.9660 -12.8384 -12.7799  -3.7621  -3.2812  -3.2105  -2.9006
    -1.8446  -1.5962  -1.5062  -1.3730  -1.2023  -0.9843  -0.9093  -0.7855
    -0.7422  -0.6428  -0.5649  -0.3497   0.1395   0.2781   0.4872   0.5698
     0.6826   0.7836   0.8229   1.0260   1.1126   1.2432   1.4167   1.5142
     1.5979   1.6924   1.8600   1.9507   2.0167   2.1117   2.1488   2.3413
     2.3644   2.4796   2.6010   2.6559   2.7246   2.8935   3.0157   3.1677
     3.2311   3.3116   3.3914   3.4989   3.5673   3.6786   3.8446   3.9153
     3.9579   4.0165   4.1352   4.2182   4.3573   4.4848   4.5479   4.5659
     4.6527   4.7057   4.8717   4.9812   5.4083   5.5018   5.7728   5.8031
    10.5777  12.1207  12.3736  12.5579  13.1176  13.5840  13.8574  14.0416
    14.1710  14.4417

     occupation numbers 
     1.0000   1.0000   1.0000   1.0000   1.0000   1.0000   1.0000   1.0000
     1.0000   1.0000   1.0000   1.0000   1.0000   1.0000   1.0000   1.0000
     1.0000   1.0000   1.0000   1.0000   1.0000   1.0000   1.0000   1.0000
     1.0000   1.0000   1.0000   1.0000   1.0000   1.0000   1.0000   1.0000
     1.0000   1.0000   1.0000   1.0000   1.0000   1.0000   1.0000   1.0000
     1.0000   1.0000   1.0000   1.0000   1.0000   1.0000   1.0000   1.0000
     1.0000   1.0000   1.0000   1.0000   1.0000   1.0000   1.0000   1.0000
     1.0000   1.0000   1.0000   1.0000   1.0000   1.0000   1.0000   1.0000
     1.0000   1.0000   1.0000   1.0000   1.0000   1.0000   1.0000   1.0000
     1.0000   1.0000   1.0000   1.0000   1.0000   1.0000   1.0000   1.0000
     1.0000   1.0000   1.0000   1.0000   1.0000   1.0000   1.0000   1.0000
     1.0000   1.0000   1.0000   1.0000   1.0000   1.0000   1.0000   1.0000
     1.0000   1.0000   1.0000   1.0000   1.0000   1.0000   1.0000   1.0000
     0.0000   0.0000   0.0000   0.0000   0.0000   0.0000   0.0000   0.0000
     0.0000   0.0000

          k = 0.0000 0.4542 0.2220 ( 34661 PWs)   bands (ev):

   -84.3848 -84.3308 -84.2178 -84.2120 -50.4906 -50.4843 -50.4206 -50.4170
   -50.3902 -50.3675 -50.3272 -50.2560 -50.1430 -50.1420 -50.0494 -50.0319
   -44.3745 -16.5977 -16.4026 -16.3686 -15.9855 -15.8344 -15.7339 -15.6498
   -13.7798 -13.5701 -13.4928 -13.3971 -13.3106 -13.2346 -13.1214 -13.0424
   -13.0167 -12.9683 -12.8460 -12.7787  -3.7419  -3.2809  -3.1888  -2.8734
    -1.8285  -1.6230  -1.4996  -1.3147  -1.1944  -0.9767  -0.8859  -0.8186
[...]
     atom   14 type  3   force =    -0.13983075    0.01598408    0.02159299
     atom   15 type  3   force =     0.11984842   -0.04168403   -0.01775429
     atom   16 type  3   force =     0.13771085   -0.01668861   -0.02426069
     atom   17 type  3   force =    -0.11902382    0.03810127    0.02124766
     atom   18 type  3   force =    -0.00697860    0.01182191    0.00359898
     atom   19 type  3   force =    -0.01767100   -0.00902693   -0.00934399
     atom   20 type  3   force =     0.01240321   -0.00966076    0.01178825
     atom   21 type  3   force =    -0.00071889   -0.00281609   -0.00251540
     atom   22 type  3   force =     0.00860629   -0.01386390    0.00192402
     atom   23 type  3   force =     0.01849137    0.00795343    0.01279603
     atom   24 type  3   force =    -0.01283369    0.00463319   -0.00748317
     atom   25 type  3   force =     0.00286472    0.00308090    0.00786826
     The non-local contrib.  to forces
     atom    1 type  2   force =     0.06375408   -0.01268253    0.04897744
     atom    2 type  1   force =     0.08603405   -0.10216425   -0.19276541
     atom    3 type  1   force =    -0.05826854   -0.11139856    0.07577946
     atom    4 type  1   force =    -0.05889484    0.10825986    0.21002367
     atom    5 type  1   force =     0.00757416    0.07956716   -0.13952558
     atom    6 type  4   force =     0.07697679    0.00951604   -0.00372679
     atom    7 type  4   force =    -0.14106642    0.03476082   -0.03570443
     atom    8 type  4   force =    -0.07918997   -0.03304422   -0.00668498
     atom    9 type  4   force =     0.14721990   -0.04443106    0.04009660
     atom   10 type  3   force =    -0.51919661   -0.24503346   -1.09617155
     atom   11 type  3   force =    -0.04995354    0.21961051   -1.42019314
     atom   12 type  3   force =     0.55573884    0.18206458    1.06717612
     atom   13 type  3   force =     0.06811713   -0.22448876    1.42091566
     atom   14 type  3   force =     1.36033658   -0.24010013   -0.62276892
     atom   15 type  3   force =    -1.23849990    0.55482344   -0.12125211
     atom   16 type  3   force =    -1.34074882    0.24143552    0.67600656
     atom   17 type  3   force =     1.21268849   -0.45298851    0.04968748
     atom   18 type  3   force =    -0.05034785   -1.32837597    0.81828940
     atom   19 type  3   force =     0.57439597    0.74475135    0.93418841
     atom   20 type  3   force =    -0.00297213   -1.65816439   -0.95458173
     atom   21 type  3   force =    -0.09873077    1.00970108   -0.59162577
     atom   22 type  3   force =     0.06278088    1.36433904   -0.73543546
     atom   23 type  3   force =    -0.57411984   -0.72037769   -0.95455201
     atom   24 type  3   force =    -0.03876850    1.55572927    0.97312003
     atom   25 type  3   force =     0.06483304   -1.07546422    0.59001481
     The ionic contribution  to forces
     atom    1 type  2   force =     1.64243280   -3.55721062   -1.81054771
     atom    2 type  1   force =     7.83339654    5.72809314   -3.54937698
     atom    3 type  1   force =     6.70223021   -9.10395326   -2.10809609
     atom    4 type  1   force =   -10.92032754   -4.55839857    2.98849238
     atom    5 type  1   force =    -5.25033050   10.46806634    3.59443954
     atom    6 type  4   force =    -0.49126774    2.36852542   -1.79909844
     atom    7 type  4   force =     2.17470704   -0.88776092    1.40013121
     atom    8 type  4   force =     0.59386418   -2.18556212    2.21258978
     atom    9 type  4   force =    -2.15570620    0.76701629   -1.28638805
     atom   10 type  3   force =    -0.59507601    7.63164192    0.11720767
     atom   11 type  3   force =     7.39747186   -4.26473348    1.87284582
     atom   12 type  3   force =    -1.45976408   -5.73597380    1.21535995
     atom   13 type  3   force =    -7.30516713    4.42950392   -1.92722275
     atom   14 type  3   force =    -0.26042133    1.60884043    8.10629371
     atom   15 type  3   force =     0.40327318   -6.12695180    5.53748059
     atom   16 type  3   force =    -0.02990971   -1.71399460   -8.61301141
     atom   17 type  3   force =     0.33096193    4.50266330   -3.08674779
     atom   18 type  3   force =    -5.12938817    7.73521192    0.40208226
     atom   19 type  3   force =     2.26713607   -2.04662466   -3.76966780
     atom   20 type  3   force =     4.40433100    6.64467481    8.80605652
     atom   21 type  3   force =    -8.76434648   -0.34246543   -0.29807327
     atom   22 type  3   force =     5.31272026   -8.95237609   -3.36432594
     atom   23 type  3   force =    -2.58610327    0.81253956    4.04926423
     atom   24 type  3   force =    -3.14110237   -4.48322064   -9.28618744
     atom   25 type  3   force =     9.02638547    1.26244893    0.59650003
     The local contribution  to forces
     atom    1 type  2   force =    -1.70840041    3.58709516    1.71932058
     atom    2 type  1   force =    -7.91426827   -5.62673489    3.71558312
     atom    3 type  1   force =    -6.63355870    9.21187072    2.03588763
     atom    4 type  1   force =    10.97022184    4.45450061   -3.16775157
     atom    5 type  1   force =     5.23035073  -10.54397205   -3.45298334
     atom    6 type  4   force =     0.50869700   -2.41400189    1.77654793
     atom    7 type  4   force =    -2.16408655    0.87155041   -1.35466235
     atom    8 type  4   force =    -0.60429585    2.24904803   -2.17744452
     atom    9 type  4   force =     2.14044625   -0.74297306    1.24126709
     atom   10 type  3   force =     1.12786179   -7.38591311    0.98073753
     atom   11 type  3   force =    -7.34373228    4.04108257   -0.45881582
     atom   12 type  3   force =     0.88889474    5.54904010   -2.28125179
     atom   13 type  3   force =     7.23390716   -4.20136898    0.51511981
     atom   14 type  3   force =    -1.23020469   -1.35470311   -7.46757134
     atom   15 type  3   force =     0.94640672    5.53500566   -5.43570580
     atom   16 type  3   force =     1.49897966    1.45780886    7.91881072
     atom   17 type  3   force =    -1.65425279   -4.01524615    3.05948841
     atom   18 type  3   force =     5.17289257   -6.40682182   -1.20984940
     atom   19 type  3   force =    -2.85452720    1.29884637    2.83434734
     atom   20 type  3   force =    -4.38907268   -5.01070657   -7.84847471
     atom   21 type  3   force =     8.86167690   -0.66139419    0.88183522
     atom   22 type  3   force =    -5.36688184    7.58633065    4.09557001
     atom   23 type  3   force =     3.17403235   -0.08998257   -3.09032516
     atom   24 type  3   force =     3.16673846    2.94567114    8.31458038
     atom   25 type  3   force =    -9.08799836   -0.19312568   -1.17329427
     The core correction contribution to forces
     atom    1 type  2   force =     0.00000000    0.00000000    0.00000000
     atom    2 type  1   force =    -0.00264315    0.00066714    0.00191583
     atom    3 type  1   force =     0.00100381   -0.00004227    0.00093694
     atom    4 type  1   force =     0.00250197   -0.00107146   -0.00218708
     atom    5 type  1   force =    -0.00024328    0.00043861   -0.00055342
     atom    6 type  4   force =    -0.00639502    0.00102353    0.00200083
     atom    7 type  4   force =     0.01202854   -0.00270430    0.00108095
     atom    8 type  4   force =     0.00646471    0.00063125   -0.00126945
     atom    9 type  4   force =    -0.01250768    0.00360137   -0.00155870
     atom   10 type  3   force =     0.00393511    0.00205869    0.00919916
     atom   11 type  3   force =     0.00116200   -0.00214554    0.01215745
     atom   12 type  3   force =    -0.00419942   -0.00150982   -0.00903892
     atom   13 type  3   force =    -0.00132406    0.00219188   -0.01223785
     atom   14 type  3   force =    -0.00953787    0.00194653    0.00564129
     atom   15 type  3   force =     0.00867150   -0.00456034    0.00172095
     atom   16 type  3   force =     0.00939153   -0.00193862   -0.00606597
     atom   17 type  3   force =    -0.00842104    0.00367140   -0.00118093
     atom   18 type  3   force =    -0.00013733    0.01180808   -0.00692177
     atom   19 type  3   force =    -0.00467657   -0.00599496   -0.00821454
     atom   20 type  3   force =     0.00011745    0.01453375    0.00878856
     atom   21 type  3   force =     0.00068175   -0.00866075    0.00534741
     atom   22 type  3   force =    -0.00001440   -0.01215748    0.00611591
     atom   23 type  3   force =     0.00468215    0.00577637    0.00840790
     atom   24 type  3   force =     0.00030055   -0.01354856   -0.00899335
     atom   25 type  3   force =    -0.00035649    0.00921658   -0.00535521
     The Hubbard contrib.    to forces
     atom    1 type  2   force =     0.00000000    0.00000000    0.00000000
     atom    2 type  1   force =     0.00000000    0.00000000    0.00000000
     atom    3 type  1   force =     0.00000000    0.00000000    0.00000000
     atom    4 type  1   force =     0.00000000    0.00000000    0.00000000
     atom    5 type  1   force =     0.00000000    0.00000000    0.00000000
     atom    6 type  4   force =     0.00000000    0.00000000    0.00000000
     atom    7 type  4   force =     0.00000000    0.00000000    0.00000000
     atom    8 type  4   force =     0.00000000    0.00000000    0.00000000
     atom    9 type  4   force =     0.00000000    0.00000000    0.00000000
     atom   10 type  3   force =     0.00000000    0.00000000    0.00000000
     atom   11 type  3   force =     0.00000000    0.00000000    0.00000000
     atom   12 type  3   force =     0.00000000    0.00000000    0.00000000
     atom   13 type  3   force =     0.00000000    0.00000000    0.00000000
     atom   14 type  3   force =     0.00000000    0.00000000    0.00000000
     atom   15 type  3   force =     0.00000000    0.00000000    0.00000000
     atom   16 type  3   force =     0.00000000    0.00000000    0.00000000
     atom   17 type  3   force =     0.00000000    0.00000000    0.00000000
     atom   18 type  3   force =     0.00000000    0.00000000    0.00000000
     atom   19 type  3   force =     0.00000000    0.00000000    0.00000000
     atom   20 type  3   force =     0.00000000    0.00000000    0.00000000
     atom   21 type  3   force =     0.00000000    0.00000000    0.00000000
     atom   22 type  3   force =     0.00000000    0.00000000    0.00000000
     atom   23 type  3   force =     0.00000000    0.00000000    0.00000000
     atom   24 type  3   force =     0.00000000    0.00000000    0.00000000
     atom   25 type  3   force =     0.00000000    0.00000000    0.00000000
     The SCF correction term to forces
     atom    1 type  2   force =    -0.00000056   -0.00000236   -0.00000034
     atom    2 type  1   force =     0.00000074    0.00000096    0.00000156
     atom    3 type  1   force =     0.00000005    0.00000145    0.00000147
     atom    4 type  1   force =     0.00000052   -0.00000004    0.00000034
     atom    5 type  1   force =     0.00000064    0.00000140    0.00000026
     atom    6 type  4   force =    -0.00000008    0.00000158   -0.00000079
     atom    7 type  4   force =     0.00000021   -0.00000062    0.00000020
     atom    8 type  4   force =    -0.00000033    0.00000027   -0.00000010
     atom    9 type  4   force =    -0.00000080   -0.00000016   -0.00000000
     atom   10 type  3   force =     0.00000148    0.00000410    0.00000243
     atom   11 type  3   force =     0.00000239   -0.00000147   -0.00000263
     atom   12 type  3   force =     0.00000070    0.00000089    0.00000136
     atom   13 type  3   force =    -0.00000039   -0.00000020   -0.00000041
     atom   14 type  3   force =    -0.00000327   -0.00000015   -0.00000210
     atom   15 type  3   force =    -0.00000291   -0.00000149    0.00000174
     atom   16 type  3   force =    -0.00000164   -0.00000028   -0.00000094
     atom   17 type  3   force =    -0.00000025    0.00000073    0.00000015
     atom   18 type  3   force =     0.00000235   -0.00000080   -0.00000186
     atom   19 type  3   force =     0.00000089   -0.00000554    0.00000225
     atom   20 type  3   force =    -0.00000026    0.00000114   -0.00000073
     atom   21 type  3   force =    -0.00000013    0.00000270    0.00000066
     atom   22 type  3   force =     0.00000155   -0.00000052   -0.00000085
     atom   23 type  3   force =     0.00000015   -0.00000276    0.00000071
     atom   24 type  3   force =    -0.00000166    0.00000148   -0.00000315
     atom   25 type  3   force =     0.00000123    0.00000478    0.00000254

     Total force =     0.356345     Total SCF correction =     0.000015


     Computing stress (Cartesian axis) and pressure


     negative rho (up, down):  0.000E+00 9.114E-04
          total   stress  (Ry/bohr**3)                   (kbar)     P=      114.23
   0.00119649  -0.00007915  -0.00007494          176.01      -11.64      -11.02
  -0.00007915   0.00053715  -0.00004444          -11.64       79.02       -6.54
  -0.00007494  -0.00004444   0.00059584          -11.02       -6.54       87.65

     kinetic stress (kbar)  28188.45     84.67    -42.54
                               84.67  28196.41      4.26
                              -42.54      4.26  28231.66

     local   stress (kbar)  -9620.27   4306.28  -8476.81
                             4306.28 -12656.13   -737.18
                            -8476.81   -737.18  -5667.40

     nonloc. stress (kbar)  -7217.58      2.30     -0.23
                                2.30  -7183.54    -11.91
                               -0.23    -11.91  -7215.17

     hartree stress (kbar)  15615.48  -1577.83   3604.35
                            -1577.83  17542.82    357.30
                             3604.35    357.30  14423.96

     exc-cor stress (kbar)  -2969.98     -4.17      3.38
                               -4.17  -2975.15     -0.30
                                3.38     -0.30  -2973.68

     corecor stress (kbar)  -3283.11      0.86     -0.62
                                0.86  -3281.22      0.69
                               -0.62      0.69  -3281.51

     ewald   stress (kbar) -20536.97  -2823.74   4901.45
                            -2823.74 -19564.18    380.60
                             4901.45    380.60 -23430.21

     hubbard stress (kbar)      0.00      0.00      0.00
                                0.00      0.00      0.00
                                0.00      0.00      0.00

     DFT-D   stress (kbar)      0.00      0.00      0.00
                                0.00      0.00      0.00
                                0.00      0.00      0.00

     XDM     stress (kbar)      0.00      0.00      0.00
                                0.00      0.00      0.00
                                0.00      0.00      0.00

     dft-nl  stress (kbar)      0.00      0.00      0.00
                                0.00      0.00      0.00
                                0.00      0.00      0.00

     TS-vdW  stress (kbar)      0.00      0.00      0.00
                                0.00      0.00      0.00
                                0.00      0.00      0.00



     init_run     :   1125.33s CPU   1408.60s WALL (       1 calls)
     electrons    :  91443.77s CPU 104782.76s WALL (       1 calls)
     forces       :    242.93s CPU    271.48s WALL (       1 calls)
     stress       :    759.75s CPU    851.02s WALL (       1 calls)

     Called by init_run:
     wfcinit      :   1111.18s CPU   1377.64s WALL (       1 calls)
     wfcinit:atom :      1.83s CPU      2.42s WALL (     316 calls)
     wfcinit:wfcr :   1101.74s CPU   1365.09s WALL (     316 calls)
     potinit      :      5.68s CPU     12.16s WALL (       1 calls)
     hinit0       :      5.05s CPU     10.66s WALL (       1 calls)

     Called by electrons:
     c_bands      :  76820.34s CPU  88078.46s WALL (      31 calls)
     sum_band     :  14412.11s CPU  16441.14s WALL (      31 calls)
     v_of_rho     :     60.73s CPU     72.07s WALL (      32 calls)
     v_h          :      4.22s CPU      5.44s WALL (      32 calls)
     v_xc         :     60.30s CPU     71.00s WALL (      34 calls)
     newd         :     70.24s CPU     96.82s WALL (      32 calls)
     PAW_pot      :     29.24s CPU     33.50s WALL (      32 calls)
     mix_rho      :     43.09s CPU     48.66s WALL (      31 calls)

     Called by c_bands:
     init_us_2    :    157.56s CPU    178.62s WALL (   20540 calls)
     cegterg      :  75850.89s CPU  86612.66s WALL (    9796 calls)

     Called by sum_band:
     sum_band:wei :      0.46s CPU      0.50s WALL (      31 calls)
     sum_band:loo :  14277.69s CPU  16266.45s WALL (      31 calls)
     sum_band:buf :     43.40s CPU     47.38s WALL (    9796 calls)
     sum_band:ini :     68.42s CPU     79.16s WALL (    9796 calls)
     sum_band:cal :   1596.20s CPU   1822.33s WALL (    9796 calls)
     sum_band:bec :      5.55s CPU      5.65s WALL (    9796 calls)
     addusdens    :    119.45s CPU    157.52s WALL (      31 calls)
     addusd:skk   :      0.96s CPU      1.10s WALL (      93 calls)
     addusd:dgemm :     41.95s CPU     65.31s WALL (     186 calls)
     addusd:qvan2 :     74.42s CPU     85.91s WALL (     186 calls)

     Called by *egterg:
     cdiaghg      :   1530.11s CPU   1800.44s WALL (   35949 calls)
     cegterg:over :   5295.06s CPU   5992.57s WALL (   26153 calls)
     cegterg:upda :    749.78s CPU    878.08s WALL (   26153 calls)
     cegterg:last :   1460.05s CPU   1689.20s WALL (   15672 calls)
     h_psi        :  61632.48s CPU  70502.65s WALL (   36265 calls)
     s_psi        :   1611.55s CPU   1869.19s WALL (   36265 calls)
     g_psi        :     18.24s CPU     20.12s WALL (   26153 calls)

     Called by h_psi:
     h_psi:calbec :   4278.76s CPU   4881.50s WALL (   36265 calls)
     vloc_psi     :  55583.14s CPU  63536.67s WALL (   36265 calls)
     add_vuspsi   :   1695.32s CPU   2002.55s WALL (   36265 calls)

     General routines
     calbec       :   6192.50s CPU   7056.01s WALL (   47641 calls)
     fft          :     83.77s CPU     97.12s WALL (     838 calls)
     ffts         :      3.01s CPU      3.58s WALL (     126 calls)
     fftw         :  67437.30s CPU  77102.10s WALL ( 6083674 calls)
     interpolate  :      7.44s CPU      8.63s WALL (      64 calls)

     Parallel routines
     fft_scatt_xy :    733.89s CPU    739.86s WALL ( 6084638 calls)
     fft_scatt_yz :  64178.04s CPU  73776.56s WALL ( 6084638 calls)

     PAW routines
     PAW_pot      :     29.24s CPU     33.50s WALL (      32 calls)

     PWSCF        :   1d 1h59m CPU   1d 5h48m WALL


   This run was terminated on:  23:44:42  13Jan2023            

=------------------------------------------------------------------------------=
   JOB DONE.
=------------------------------------------------------------------------------=
Note: The following floating-point exceptions are signalling: IEEE_INVALID_FLAG IEEE_DENORMAL
Note: The following floating-point exceptions are signalling: IEEE_DENORMAL
Note: The following floating-point exceptions are signalling: IEEE_DENORMAL
Note: The following floating-point exceptions are signalling: IEEE_DENORMAL
Note: The following floating-point exceptions are signalling: IEEE_DENORMAL
Note: The following floating-point exceptions are signalling: IEEE_DENORMAL
Note: The following floating-point exceptions are signalling: IEEE_DENORMAL
Note: The following floating-point exceptions are signalling: IEEE_DENORMAL
Note: The following floating-point exceptions are signalling: IEEE_DENORMAL
Note: The following floating-point exceptions are signalling: IEEE_DENORMAL
Note: The following floating-point exceptions are signalling: IEEE_DENORMAL
Note: The following floating-point exceptions are signalling: IEEE_INVALID_FLAG IEEE_DENORMAL
Note: The following floating-point exceptions are signalling: IEEE_DENORMAL
Note: The following floating-point exceptions are signalling: IEEE_UNDERFLOW_FLAG IEEE_DENORMAL
