
     Program PWSCF v.6.7MaX starts on 18Jan2023 at 22:10: 3 

     This program is part of the open-source Quantum ESPRESSO suite
     for quantum simulation of materials; please cite
         "P. Giannozzi et al., J. Phys.:Condens. Matter 21 395502 (2009);
         "P. Giannozzi et al., J. Phys.:Condens. Matter 29 465901 (2017);
          URL http://www.quantum-espresso.org", 
     in publications or presentations arising from this work. More details at
     http://www.quantum-espresso.org/quote

     Parallel version (MPI), running on    32 processors

     MPI processes distributed on     2 nodes
     R & G space division:  proc/nbgrp/npool/nimage =      32
     Reading input from scale_1da-02.in

     Current dimensions of program PWSCF are:
     Max number of different atomic species (ntypx) = 10
     Max number of k-points (npk) =  40000
     Max angular momentum in pseudopotentials (lmaxx) =  3
     Message from routine read_pp_mesh:
     mesh size missing, using the one in header
     file Fe.pbe-spn-kjpaw_psl.0.2.1.UPF: wavefunction(s)  3D renormalized
     file O.pbe-n-kjpaw_psl.0.1.UPF: wavefunction(s)  2P renormalized

     Subspace diagonalization in iterative solution of the eigenvalue problem:
     a serial algorithm will be used


     Parallelization info
     --------------------
     sticks:   dense  smooth     PW     G-vecs:    dense   smooth      PW
     Min         610     226     61                39794     8970    1261
     Max         611     227     62                39797     8972    1264
     Sum       19549    7233   1959              1273469   287059   40409



     bravais-lattice index     =            0
     lattice parameter (alat)  =      19.3373  a.u.
     unit-cell volume          =    2124.3518 (a.u.)^3
     number of atoms/cell      =           25
     number of atomic types    =            4
     number of electrons       =       189.00
     number of Kohn-Sham states=          114
     kinetic-energy cutoff     =     100.0000  Ry
     charge density cutoff     =    1080.0000  Ry
     scf convergence threshold =      2.0E-10
     mixing beta               =       0.4000
     number of iterations used =            8  plain     mixing
     Exchange-correlation= PBE
                           (   1   4   3   4   0   0   0)

     celldm(1)=  19.337306  celldm(2)=   0.000000  celldm(3)=   0.000000
     celldm(4)=   0.000000  celldm(5)=   0.000000  celldm(6)=   0.000000

     crystal axes: (cart. coord. in units of alat)
               a(1) = (   1.000000   0.000000   0.000000 )  
               a(2) = (   0.000000   0.607719   0.000000 )  
               a(3) = (   0.000000   0.000000   0.483433 )  

     reciprocal axes: (cart. coord. in units 2 pi/alat)
               b(1) = (  1.000000  0.000000  0.000000 )  
               b(2) = (  0.000000  1.645499  0.000000 )  
               b(3) = (  0.000000  0.000000  2.068540 )  


     PseudoPot. # 1 for Fe read from file:
     /opt/QEpot/SSSP_precision_pseudos/Fe.pbe-spn-kjpaw_psl.0.2.1.UPF
     MD5 check sum: e86618425769142926afa95317d90200
     Pseudo is Projector augmented-wave + core cor, Zval = 16.0
     Generated using "atomic" code by A. Dal Corso  v.5.0.99 svn rev. 10869
     Shape of augmentation charge: PSQ
     Using radial grid of 1191 points,  6 beta functions with: 
                l(1) =   0
                l(2) =   0
                l(3) =   1
                l(4) =   1
                l(5) =   2
                l(6) =   2
     Q(r) pseudized with 0 coefficients 


     PseudoPot. # 2 for Na read from file:
     /opt/QEpot/SSSP_precision_pseudos/Na_ONCV_PBE-1.0.oncvpsp.upf
     MD5 check sum: 24a298df0a6742ae313db96548fdb2a4
     Pseudo is Norm-conserving, Zval =  9.0
     Generated using ONCVPSP code by D. R. Hamann
     Using radial grid of 1992 points,  4 beta functions with: 
                l(1) =   0
                l(2) =   0
                l(3) =   1
                l(4) =   1

     PseudoPot. # 3 for O  read from file:
     /opt/QEpot/SSSP_precision_pseudos/O.pbe-n-kjpaw_psl.0.1.UPF
     MD5 check sum: 0234752ac141de4415c5fc33072bef88
     Pseudo is Projector augmented-wave + core cor, Zval =  6.0
     Generated using "atomic" code by A. Dal Corso  v.5.0.99 svn rev. 10869
     Shape of augmentation charge: BESSEL
     Using radial grid of 1095 points,  4 beta functions with: 
                l(1) =   0
                l(2) =   0
                l(3) =   1
                l(4) =   1
     Q(r) pseudized with 0 coefficients 


     PseudoPot. # 4 for P  read from file:
     /opt/QEpot/SSSP_precision_pseudos/P.pbe-n-rrkjus_psl.1.0.0.UPF
     MD5 check sum: 8b930f418f0a4573dca56cd030ffe088
     Pseudo is Ultrasoft + core correction, Zval =  5.0
     Generated using "atomic" code by A. Dal Corso  v.5.1
     Using radial grid of 1147 points,  6 beta functions with: 
                l(1) =   0
                l(2) =   0
                l(3) =   1
                l(4) =   1
                l(5) =   2
                l(6) =   2
     Q(r) pseudized with 0 coefficients 


     atomic species   valence    mass     pseudopotential
        Fe            16.00    55.84500     Fe( 1.00)
        Na             9.00    22.98977     Na( 1.00)
        O              6.00    15.99940     O ( 1.00)
        P              5.00    30.97376     P ( 1.00)

     Starting magnetic structure 
     atomic species   magnetization
        Fe           0.312
        Na           0.000
        O            0.000
        P            0.000

     No symmetry found


                                    s                        frac. trans.

      isym =  1     identity                                     

 cryst.   s( 1) = (     1          0          0      )
                  (     0          1          0      )
                  (     0          0          1      )

 cart.    s( 1) = (  1.0000000  0.0000000  0.0000000 )
                  (  0.0000000  1.0000000  0.0000000 )
                  (  0.0000000  0.0000000  1.0000000 )


   Cartesian axes

     site n.     atom                  positions (alat units)
         1           Na  tau(   1) = (   0.9937840   0.0392495   0.1580375  )
         2           Fe  tau(   2) = (   0.2986740   0.4696960   0.4150067  )
         3           Fe  tau(   3) = (   0.2261460   0.2040330   0.2501711  )
         4           Fe  tau(   4) = (   0.6975520   0.1383198   0.0733189  )
         5           Fe  tau(   5) = (   0.7773350   0.4014716   0.2427403  )
         6           P   tau(   6) = (   0.0931440   0.3987254   0.1366002  )
         7           P   tau(   7) = (   0.3969020   0.1525410   0.4595323  )
         8           P   tau(   8) = (   0.9073800   0.2017753   0.3562711  )
         9           P   tau(   9) = (   0.6037890   0.4548737   0.0291167  )
        10           O   tau(  10) = (   0.1796790   0.4099499   0.2634544  )
        11           O   tau(  11) = (   0.3567140   0.1523818   0.1204801  )
        12           O   tau(  12) = (   0.8229580   0.1880543   0.2273898  )
        13           O   tau(  13) = (   0.6444220   0.4543796   0.3680596  )
        14           O   tau(  14) = (   0.4575890   0.4712608   0.0429279  )
        15           O   tau(  15) = (   0.0485940   0.1620554   0.3303301  )
        16           O   tau(  16) = (   0.5429300   0.1360755   0.4437646  )
        17           O   tau(  17) = (   0.9517230   0.4375245   0.1613128  )
        18           O   tau(  18) = (   0.1489580   0.5007182   0.0387805  )
        19           O   tau(  19) = (   0.3206220   0.0493747   0.3737307  )
        20           O   tau(  20) = (   0.8840090   0.3450067   0.3964709  )
        21           O   tau(  21) = (   0.6538890   0.3280927   0.1044190  )
        22           O   tau(  22) = (   0.8517680   0.1031979   0.4572360  )
        23           O   tau(  23) = (   0.6791950   0.5586945   0.1146669  )
        24           O   tau(  24) = (   0.1140230   0.2554472   0.0939063  )
        25           O   tau(  25) = (   0.3482900   0.2797590   0.3852219  )

   Crystallographic axes

     site n.     atom                  positions (cryst. coord.)
         1           Na  tau(   1) = (  0.9937840  0.0645850  0.3269070  )
         2           Fe  tau(   2) = (  0.2986740  0.7728840  0.8584580  )
         3           Fe  tau(   3) = (  0.2261460  0.3357360  0.5174890  )
         4           Fe  tau(   4) = (  0.6975520  0.2276050  0.1516630  )
         5           Fe  tau(   5) = (  0.7773350  0.6606210  0.5021180  )
         6           P   tau(   6) = (  0.0931440  0.6561020  0.2825630  )
         7           P   tau(   7) = (  0.3969020  0.2510060  0.9505610  )
         8           P   tau(   8) = (  0.9073800  0.3320210  0.7369610  )
         9           P   tau(   9) = (  0.6037890  0.7484940  0.0602290  )
        10           O   tau(  10) = (  0.1796790  0.6745720  0.5449660  )
        11           O   tau(  11) = (  0.3567140  0.2507440  0.2492180  )
        12           O   tau(  12) = (  0.8229580  0.3094430  0.4703650  )
        13           O   tau(  13) = (  0.6444220  0.7476810  0.7613460  )
        14           O   tau(  14) = (  0.4575890  0.7754590  0.0887980  )
        15           O   tau(  15) = (  0.0485940  0.2666620  0.6833010  )
        16           O   tau(  16) = (  0.5429300  0.2239120  0.9179450  )
        17           O   tau(  17) = (  0.9517230  0.7199460  0.3336820  )
        18           O   tau(  18) = (  0.1489580  0.8239310  0.0802190  )
        19           O   tau(  19) = (  0.3206220  0.0812460  0.7730770  )
        20           O   tau(  20) = (  0.8840090  0.5677080  0.8201160  )
        21           O   tau(  21) = (  0.6538890  0.5398760  0.2159950  )
        22           O   tau(  22) = (  0.8517680  0.1698120  0.9458110  )
        23           O   tau(  23) = (  0.6791950  0.9193310  0.2371930  )
        24           O   tau(  24) = (  0.1140230  0.4203380  0.1942490  )
        25           O   tau(  25) = (  0.3482900  0.4603430  0.7968470  )

     number of k points=   158  Marzari-Vanderbilt smearing, width (Ry)=  0.0073
                       cart. coord. in units 2pi/alat
        k(    1) = (   0.0000000   0.0000000   0.0000000), wk =   0.0031746
        k(    2) = (   0.0000000   0.0000000   0.2298378), wk =   0.0063492
        k(    3) = (   0.0000000   0.0000000   0.4596756), wk =   0.0063492
        k(    4) = (   0.0000000   0.0000000   0.6895134), wk =   0.0063492
        k(    5) = (   0.0000000   0.0000000   0.9193512), wk =   0.0063492
        k(    6) = (   0.0000000   0.2350712   0.0000000), wk =   0.0063492
        k(    7) = (   0.0000000   0.2350712   0.2298378), wk =   0.0063492
        k(    8) = (   0.0000000   0.2350712   0.4596756), wk =   0.0063492
        k(    9) = (   0.0000000   0.2350712   0.6895134), wk =   0.0063492
        k(   10) = (   0.0000000   0.2350712   0.9193512), wk =   0.0063492
        k(   11) = (   0.0000000   0.4701424   0.0000000), wk =   0.0063492
        k(   12) = (   0.0000000   0.4701424   0.2298378), wk =   0.0063492
        k(   13) = (   0.0000000   0.4701424   0.4596756), wk =   0.0063492
        k(   14) = (   0.0000000   0.4701424   0.6895134), wk =   0.0063492
        k(   15) = (   0.0000000   0.4701424   0.9193512), wk =   0.0063492
        k(   16) = (   0.0000000   0.7052137   0.0000000), wk =   0.0063492
        k(   17) = (   0.0000000   0.7052137   0.2298378), wk =   0.0063492
        k(   18) = (   0.0000000   0.7052137   0.4596756), wk =   0.0063492
        k(   19) = (   0.0000000   0.7052137   0.6895134), wk =   0.0063492
        k(   20) = (   0.0000000   0.7052137   0.9193512), wk =   0.0063492
        k(   21) = (   0.2000000   0.0000000   0.0000000), wk =   0.0063492
        k(   22) = (   0.2000000   0.0000000   0.2298378), wk =   0.0063492
        k(   23) = (   0.2000000   0.0000000   0.4596756), wk =   0.0063492
        k(   24) = (   0.2000000   0.0000000   0.6895134), wk =   0.0063492
        k(   25) = (   0.2000000   0.0000000   0.9193512), wk =   0.0063492
        k(   26) = (   0.2000000   0.2350712   0.0000000), wk =   0.0063492
        k(   27) = (   0.2000000   0.2350712   0.2298378), wk =   0.0063492
        k(   28) = (   0.2000000   0.2350712   0.4596756), wk =   0.0063492
        k(   29) = (   0.2000000   0.2350712   0.6895134), wk =   0.0063492
        k(   30) = (   0.2000000   0.2350712   0.9193512), wk =   0.0063492
        k(   31) = (   0.2000000   0.4701424   0.0000000), wk =   0.0063492
        k(   32) = (   0.2000000   0.4701424   0.2298378), wk =   0.0063492
        k(   33) = (   0.2000000   0.4701424   0.4596756), wk =   0.0063492
        k(   34) = (   0.2000000   0.4701424   0.6895134), wk =   0.0063492
        k(   35) = (   0.2000000   0.4701424   0.9193512), wk =   0.0063492
        k(   36) = (   0.2000000   0.7052137   0.0000000), wk =   0.0063492
        k(   37) = (   0.2000000   0.7052137   0.2298378), wk =   0.0063492
        k(   38) = (   0.2000000   0.7052137   0.4596756), wk =   0.0063492
        k(   39) = (   0.2000000   0.7052137   0.6895134), wk =   0.0063492
        k(   40) = (   0.2000000   0.7052137   0.9193512), wk =   0.0063492
        k(   41) = (   0.4000000   0.0000000   0.0000000), wk =   0.0063492
        k(   42) = (   0.4000000   0.0000000   0.2298378), wk =   0.0063492
        k(   43) = (   0.4000000   0.0000000   0.4596756), wk =   0.0063492
        k(   44) = (   0.4000000   0.0000000   0.6895134), wk =   0.0063492
        k(   45) = (   0.4000000   0.0000000   0.9193512), wk =   0.0063492
        k(   46) = (   0.4000000   0.2350712   0.0000000), wk =   0.0063492
        k(   47) = (   0.4000000   0.2350712   0.2298378), wk =   0.0063492
        k(   48) = (   0.4000000   0.2350712   0.4596756), wk =   0.0063492
        k(   49) = (   0.4000000   0.2350712   0.6895134), wk =   0.0063492
        k(   50) = (   0.4000000   0.2350712   0.9193512), wk =   0.0063492
        k(   51) = (   0.4000000   0.4701424   0.0000000), wk =   0.0063492
        k(   52) = (   0.4000000   0.4701424   0.2298378), wk =   0.0063492
        k(   53) = (   0.4000000   0.4701424   0.4596756), wk =   0.0063492
        k(   54) = (   0.4000000   0.4701424   0.6895134), wk =   0.0063492
        k(   55) = (   0.4000000   0.4701424   0.9193512), wk =   0.0063492
        k(   56) = (   0.4000000   0.7052137   0.0000000), wk =   0.0063492
        k(   57) = (   0.4000000   0.7052137   0.2298378), wk =   0.0063492
        k(   58) = (   0.4000000   0.7052137   0.4596756), wk =   0.0063492
        k(   59) = (   0.4000000   0.7052137   0.6895134), wk =   0.0063492
        k(   60) = (   0.4000000   0.7052137   0.9193512), wk =   0.0063492
        k(   61) = (   0.0000000  -0.2350712   0.2298378), wk =   0.0063492
        k(   62) = (   0.0000000  -0.2350712   0.4596756), wk =   0.0063492
        k(   63) = (   0.0000000  -0.2350712   0.6895134), wk =   0.0063492
        k(   64) = (   0.0000000  -0.2350712   0.9193512), wk =   0.0063492
        k(   65) = (   0.0000000  -0.4701424   0.2298378), wk =   0.0063492
        k(   66) = (   0.0000000  -0.4701424   0.4596756), wk =   0.0063492
        k(   67) = (   0.0000000  -0.4701424   0.6895134), wk =   0.0063492
        k(   68) = (   0.0000000  -0.4701424   0.9193512), wk =   0.0063492
        k(   69) = (   0.0000000  -0.7052137   0.2298378), wk =   0.0063492
        k(   70) = (   0.0000000  -0.7052137   0.4596756), wk =   0.0063492
        k(   71) = (   0.0000000  -0.7052137   0.6895134), wk =   0.0063492
        k(   72) = (   0.0000000  -0.7052137   0.9193512), wk =   0.0063492
        k(   73) = (  -0.2000000   0.0000000   0.2298378), wk =   0.0063492
        k(   74) = (  -0.2000000   0.0000000   0.4596756), wk =   0.0063492
        k(   75) = (  -0.2000000   0.0000000   0.6895134), wk =   0.0063492
        k(   76) = (  -0.2000000   0.0000000   0.9193512), wk =   0.0063492
        k(   77) = (  -0.2000000   0.2350712   0.0000000), wk =   0.0063492
        k(   78) = (  -0.2000000  -0.2350712   0.2298378), wk =   0.0063492
        k(   79) = (  -0.2000000   0.2350712  -0.2298378), wk =   0.0063492
        k(   80) = (   0.2000000  -0.2350712  -0.2298378), wk =   0.0063492
        k(   81) = (  -0.2000000  -0.2350712   0.4596756), wk =   0.0063492
        k(   82) = (  -0.2000000   0.2350712  -0.4596756), wk =   0.0063492
        k(   83) = (   0.2000000  -0.2350712  -0.4596756), wk =   0.0063492
        k(   84) = (  -0.2000000  -0.2350712   0.6895134), wk =   0.0063492
        k(   85) = (  -0.2000000   0.2350712  -0.6895134), wk =   0.0063492
        k(   86) = (   0.2000000  -0.2350712  -0.6895134), wk =   0.0063492
        k(   87) = (  -0.2000000  -0.2350712   0.9193512), wk =   0.0063492
        k(   88) = (  -0.2000000   0.2350712  -0.9193512), wk =   0.0063492
        k(   89) = (   0.2000000  -0.2350712  -0.9193512), wk =   0.0063492
        k(   90) = (  -0.2000000   0.4701424   0.0000000), wk =   0.0063492
        k(   91) = (  -0.2000000  -0.4701424   0.2298378), wk =   0.0063492
        k(   92) = (  -0.2000000   0.4701424  -0.2298378), wk =   0.0063492
        k(   93) = (   0.2000000  -0.4701424  -0.2298378), wk =   0.0063492
        k(   94) = (  -0.2000000  -0.4701424   0.4596756), wk =   0.0063492
        k(   95) = (  -0.2000000   0.4701424  -0.4596756), wk =   0.0063492
        k(   96) = (   0.2000000  -0.4701424  -0.4596756), wk =   0.0063492
        k(   97) = (  -0.2000000  -0.4701424   0.6895134), wk =   0.0063492
        k(   98) = (  -0.2000000   0.4701424  -0.6895134), wk =   0.0063492
        k(   99) = (   0.2000000  -0.4701424  -0.6895134), wk =   0.0063492
        k(  100) = (  -0.2000000  -0.4701424   0.9193512), wk =   0.0063492
        k(  101) = (  -0.2000000   0.4701424  -0.9193512), wk =   0.0063492
        k(  102) = (   0.2000000  -0.4701424  -0.9193512), wk =   0.0063492
        k(  103) = (  -0.2000000   0.7052137   0.0000000), wk =   0.0063492
        k(  104) = (  -0.2000000  -0.7052137   0.2298378), wk =   0.0063492
        k(  105) = (  -0.2000000   0.7052137  -0.2298378), wk =   0.0063492
        k(  106) = (   0.2000000  -0.7052137  -0.2298378), wk =   0.0063492
        k(  107) = (  -0.2000000  -0.7052137   0.4596756), wk =   0.0063492
        k(  108) = (  -0.2000000   0.7052137  -0.4596756), wk =   0.0063492
        k(  109) = (   0.2000000  -0.7052137  -0.4596756), wk =   0.0063492
        k(  110) = (  -0.2000000  -0.7052137   0.6895134), wk =   0.0063492
        k(  111) = (  -0.2000000   0.7052137  -0.6895134), wk =   0.0063492
        k(  112) = (   0.2000000  -0.7052137  -0.6895134), wk =   0.0063492
        k(  113) = (  -0.2000000  -0.7052137   0.9193512), wk =   0.0063492
        k(  114) = (  -0.2000000   0.7052137  -0.9193512), wk =   0.0063492
        k(  115) = (   0.2000000  -0.7052137  -0.9193512), wk =   0.0063492
        k(  116) = (  -0.4000000   0.0000000   0.2298378), wk =   0.0063492
        k(  117) = (  -0.4000000   0.0000000   0.4596756), wk =   0.0063492
        k(  118) = (  -0.4000000   0.0000000   0.6895134), wk =   0.0063492
        k(  119) = (  -0.4000000   0.0000000   0.9193512), wk =   0.0063492
        k(  120) = (  -0.4000000   0.2350712   0.0000000), wk =   0.0063492
        k(  121) = (  -0.4000000  -0.2350712   0.2298378), wk =   0.0063492
        k(  122) = (  -0.4000000   0.2350712  -0.2298378), wk =   0.0063492
        k(  123) = (   0.4000000  -0.2350712  -0.2298378), wk =   0.0063492
        k(  124) = (  -0.4000000  -0.2350712   0.4596756), wk =   0.0063492
        k(  125) = (  -0.4000000   0.2350712  -0.4596756), wk =   0.0063492
        k(  126) = (   0.4000000  -0.2350712  -0.4596756), wk =   0.0063492
        k(  127) = (  -0.4000000  -0.2350712   0.6895134), wk =   0.0063492
        k(  128) = (  -0.4000000   0.2350712  -0.6895134), wk =   0.0063492
        k(  129) = (   0.4000000  -0.2350712  -0.6895134), wk =   0.0063492
        k(  130) = (  -0.4000000  -0.2350712   0.9193512), wk =   0.0063492
        k(  131) = (  -0.4000000   0.2350712  -0.9193512), wk =   0.0063492
        k(  132) = (   0.4000000  -0.2350712  -0.9193512), wk =   0.0063492
        k(  133) = (  -0.4000000   0.4701424   0.0000000), wk =   0.0063492
        k(  134) = (  -0.4000000  -0.4701424   0.2298378), wk =   0.0063492
        k(  135) = (  -0.4000000   0.4701424  -0.2298378), wk =   0.0063492
        k(  136) = (   0.4000000  -0.4701424  -0.2298378), wk =   0.0063492
        k(  137) = (  -0.4000000  -0.4701424   0.4596756), wk =   0.0063492
        k(  138) = (  -0.4000000   0.4701424  -0.4596756), wk =   0.0063492
        k(  139) = (   0.4000000  -0.4701424  -0.4596756), wk =   0.0063492
        k(  140) = (  -0.4000000  -0.4701424   0.6895134), wk =   0.0063492
        k(  141) = (  -0.4000000   0.4701424  -0.6895134), wk =   0.0063492
        k(  142) = (   0.4000000  -0.4701424  -0.6895134), wk =   0.0063492
        k(  143) = (  -0.4000000  -0.4701424   0.9193512), wk =   0.0063492
        k(  144) = (  -0.4000000   0.4701424  -0.9193512), wk =   0.0063492
        k(  145) = (   0.4000000  -0.4701424  -0.9193512), wk =   0.0063492
        k(  146) = (  -0.4000000   0.7052137   0.0000000), wk =   0.0063492
        k(  147) = (  -0.4000000  -0.7052137   0.2298378), wk =   0.0063492
        k(  148) = (  -0.4000000   0.7052137  -0.2298378), wk =   0.0063492
        k(  149) = (   0.4000000  -0.7052137  -0.2298378), wk =   0.0063492
        k(  150) = (  -0.4000000  -0.7052137   0.4596756), wk =   0.0063492
        k(  151) = (  -0.4000000   0.7052137  -0.4596756), wk =   0.0063492
        k(  152) = (   0.4000000  -0.7052137  -0.4596756), wk =   0.0063492
        k(  153) = (  -0.4000000  -0.7052137   0.6895134), wk =   0.0063492
        k(  154) = (  -0.4000000   0.7052137  -0.6895134), wk =   0.0063492
        k(  155) = (   0.4000000  -0.7052137  -0.6895134), wk =   0.0063492
        k(  156) = (  -0.4000000  -0.7052137   0.9193512), wk =   0.0063492
        k(  157) = (  -0.4000000   0.7052137  -0.9193512), wk =   0.0063492
        k(  158) = (   0.4000000  -0.7052137  -0.9193512), wk =   0.0063492

                       cryst. coord.
        k(    1) = (   0.0000000   0.0000000   0.0000000), wk =   0.0031746
        k(    2) = (   0.0000000   0.0000000   0.1111111), wk =   0.0063492
        k(    3) = (   0.0000000   0.0000000   0.2222222), wk =   0.0063492
        k(    4) = (   0.0000000   0.0000000   0.3333333), wk =   0.0063492
        k(    5) = (   0.0000000   0.0000000   0.4444444), wk =   0.0063492
        k(    6) = (   0.0000000   0.1428571   0.0000000), wk =   0.0063492
        k(    7) = (   0.0000000   0.1428571   0.1111111), wk =   0.0063492
        k(    8) = (   0.0000000   0.1428571   0.2222222), wk =   0.0063492
        k(    9) = (   0.0000000   0.1428571   0.3333333), wk =   0.0063492
        k(   10) = (   0.0000000   0.1428571   0.4444444), wk =   0.0063492
        k(   11) = (   0.0000000   0.2857143   0.0000000), wk =   0.0063492
        k(   12) = (   0.0000000   0.2857143   0.1111111), wk =   0.0063492
        k(   13) = (   0.0000000   0.2857143   0.2222222), wk =   0.0063492
        k(   14) = (   0.0000000   0.2857143   0.3333333), wk =   0.0063492
        k(   15) = (   0.0000000   0.2857143   0.4444444), wk =   0.0063492
        k(   16) = (   0.0000000   0.4285714   0.0000000), wk =   0.0063492
        k(   17) = (   0.0000000   0.4285714   0.1111111), wk =   0.0063492
        k(   18) = (   0.0000000   0.4285714   0.2222222), wk =   0.0063492
        k(   19) = (   0.0000000   0.4285714   0.3333333), wk =   0.0063492
        k(   20) = (   0.0000000   0.4285714   0.4444444), wk =   0.0063492
        k(   21) = (   0.2000000   0.0000000   0.0000000), wk =   0.0063492
        k(   22) = (   0.2000000   0.0000000   0.1111111), wk =   0.0063492
        k(   23) = (   0.2000000   0.0000000   0.2222222), wk =   0.0063492
        k(   24) = (   0.2000000   0.0000000   0.3333333), wk =   0.0063492
        k(   25) = (   0.2000000   0.0000000   0.4444444), wk =   0.0063492
        k(   26) = (   0.2000000   0.1428571   0.0000000), wk =   0.0063492
        k(   27) = (   0.2000000   0.1428571   0.1111111), wk =   0.0063492
        k(   28) = (   0.2000000   0.1428571   0.2222222), wk =   0.0063492
        k(   29) = (   0.2000000   0.1428571   0.3333333), wk =   0.0063492
        k(   30) = (   0.2000000   0.1428571   0.4444444), wk =   0.0063492
        k(   31) = (   0.2000000   0.2857143   0.0000000), wk =   0.0063492
        k(   32) = (   0.2000000   0.2857143   0.1111111), wk =   0.0063492
        k(   33) = (   0.2000000   0.2857143   0.2222222), wk =   0.0063492
        k(   34) = (   0.2000000   0.2857143   0.3333333), wk =   0.0063492
        k(   35) = (   0.2000000   0.2857143   0.4444444), wk =   0.0063492
        k(   36) = (   0.2000000   0.4285714   0.0000000), wk =   0.0063492
        k(   37) = (   0.2000000   0.4285714   0.1111111), wk =   0.0063492
        k(   38) = (   0.2000000   0.4285714   0.2222222), wk =   0.0063492
        k(   39) = (   0.2000000   0.4285714   0.3333333), wk =   0.0063492
        k(   40) = (   0.2000000   0.4285714   0.4444444), wk =   0.0063492
        k(   41) = (   0.4000000   0.0000000   0.0000000), wk =   0.0063492
        k(   42) = (   0.4000000   0.0000000   0.1111111), wk =   0.0063492
        k(   43) = (   0.4000000   0.0000000   0.2222222), wk =   0.0063492
        k(   44) = (   0.4000000   0.0000000   0.3333333), wk =   0.0063492
        k(   45) = (   0.4000000   0.0000000   0.4444444), wk =   0.0063492
        k(   46) = (   0.4000000   0.1428571   0.0000000), wk =   0.0063492
        k(   47) = (   0.4000000   0.1428571   0.1111111), wk =   0.0063492
        k(   48) = (   0.4000000   0.1428571   0.2222222), wk =   0.0063492
        k(   49) = (   0.4000000   0.1428571   0.3333333), wk =   0.0063492
        k(   50) = (   0.4000000   0.1428571   0.4444444), wk =   0.0063492
        k(   51) = (   0.4000000   0.2857143   0.0000000), wk =   0.0063492
        k(   52) = (   0.4000000   0.2857143   0.1111111), wk =   0.0063492
        k(   53) = (   0.4000000   0.2857143   0.2222222), wk =   0.0063492
        k(   54) = (   0.4000000   0.2857143   0.3333333), wk =   0.0063492
        k(   55) = (   0.4000000   0.2857143   0.4444444), wk =   0.0063492
        k(   56) = (   0.4000000   0.4285714   0.0000000), wk =   0.0063492
        k(   57) = (   0.4000000   0.4285714   0.1111111), wk =   0.0063492
        k(   58) = (   0.4000000   0.4285714   0.2222222), wk =   0.0063492
        k(   59) = (   0.4000000   0.4285714   0.3333333), wk =   0.0063492
        k(   60) = (   0.4000000   0.4285714   0.4444444), wk =   0.0063492
        k(   61) = (   0.0000000  -0.1428571   0.1111111), wk =   0.0063492
        k(   62) = (   0.0000000  -0.1428571   0.2222222), wk =   0.0063492
        k(   63) = (   0.0000000  -0.1428571   0.3333333), wk =   0.0063492
        k(   64) = (   0.0000000  -0.1428571   0.4444444), wk =   0.0063492
        k(   65) = (   0.0000000  -0.2857143   0.1111111), wk =   0.0063492
        k(   66) = (   0.0000000  -0.2857143   0.2222222), wk =   0.0063492
        k(   67) = (   0.0000000  -0.2857143   0.3333333), wk =   0.0063492
        k(   68) = (   0.0000000  -0.2857143   0.4444444), wk =   0.0063492
        k(   69) = (   0.0000000  -0.4285714   0.1111111), wk =   0.0063492
        k(   70) = (   0.0000000  -0.4285714   0.2222222), wk =   0.0063492
        k(   71) = (   0.0000000  -0.4285714   0.3333333), wk =   0.0063492
        k(   72) = (   0.0000000  -0.4285714   0.4444444), wk =   0.0063492
        k(   73) = (  -0.2000000   0.0000000   0.1111111), wk =   0.0063492
        k(   74) = (  -0.2000000   0.0000000   0.2222222), wk =   0.0063492
        k(   75) = (  -0.2000000   0.0000000   0.3333333), wk =   0.0063492
        k(   76) = (  -0.2000000   0.0000000   0.4444444), wk =   0.0063492
        k(   77) = (  -0.2000000   0.1428571   0.0000000), wk =   0.0063492
        k(   78) = (  -0.2000000  -0.1428571   0.1111111), wk =   0.0063492
        k(   79) = (  -0.2000000   0.1428571  -0.1111111), wk =   0.0063492
        k(   80) = (   0.2000000  -0.1428571  -0.1111111), wk =   0.0063492
        k(   81) = (  -0.2000000  -0.1428571   0.2222222), wk =   0.0063492
        k(   82) = (  -0.2000000   0.1428571  -0.2222222), wk =   0.0063492
        k(   83) = (   0.2000000  -0.1428571  -0.2222222), wk =   0.0063492
        k(   84) = (  -0.2000000  -0.1428571   0.3333333), wk =   0.0063492
        k(   85) = (  -0.2000000   0.1428571  -0.3333333), wk =   0.0063492
        k(   86) = (   0.2000000  -0.1428571  -0.3333333), wk =   0.0063492
        k(   87) = (  -0.2000000  -0.1428571   0.4444444), wk =   0.0063492
        k(   88) = (  -0.2000000   0.1428571  -0.4444444), wk =   0.0063492
        k(   89) = (   0.2000000  -0.1428571  -0.4444444), wk =   0.0063492
        k(   90) = (  -0.2000000   0.2857143   0.0000000), wk =   0.0063492
        k(   91) = (  -0.2000000  -0.2857143   0.1111111), wk =   0.0063492
        k(   92) = (  -0.2000000   0.2857143  -0.1111111), wk =   0.0063492
        k(   93) = (   0.2000000  -0.2857143  -0.1111111), wk =   0.0063492
        k(   94) = (  -0.2000000  -0.2857143   0.2222222), wk =   0.0063492
        k(   95) = (  -0.2000000   0.2857143  -0.2222222), wk =   0.0063492
        k(   96) = (   0.2000000  -0.2857143  -0.2222222), wk =   0.0063492
        k(   97) = (  -0.2000000  -0.2857143   0.3333333), wk =   0.0063492
        k(   98) = (  -0.2000000   0.2857143  -0.3333333), wk =   0.0063492
        k(   99) = (   0.2000000  -0.2857143  -0.3333333), wk =   0.0063492
        k(  100) = (  -0.2000000  -0.2857143   0.4444444), wk =   0.0063492
        k(  101) = (  -0.2000000   0.2857143  -0.4444444), wk =   0.0063492
        k(  102) = (   0.2000000  -0.2857143  -0.4444444), wk =   0.0063492
        k(  103) = (  -0.2000000   0.4285714   0.0000000), wk =   0.0063492
        k(  104) = (  -0.2000000  -0.4285714   0.1111111), wk =   0.0063492
        k(  105) = (  -0.2000000   0.4285714  -0.1111111), wk =   0.0063492
        k(  106) = (   0.2000000  -0.4285714  -0.1111111), wk =   0.0063492
        k(  107) = (  -0.2000000  -0.4285714   0.2222222), wk =   0.0063492
        k(  108) = (  -0.2000000   0.4285714  -0.2222222), wk =   0.0063492
        k(  109) = (   0.2000000  -0.4285714  -0.2222222), wk =   0.0063492
        k(  110) = (  -0.2000000  -0.4285714   0.3333333), wk =   0.0063492
        k(  111) = (  -0.2000000   0.4285714  -0.3333333), wk =   0.0063492
        k(  112) = (   0.2000000  -0.4285714  -0.3333333), wk =   0.0063492
        k(  113) = (  -0.2000000  -0.4285714   0.4444444), wk =   0.0063492
        k(  114) = (  -0.2000000   0.4285714  -0.4444444), wk =   0.0063492
        k(  115) = (   0.2000000  -0.4285714  -0.4444444), wk =   0.0063492
        k(  116) = (  -0.4000000   0.0000000   0.1111111), wk =   0.0063492
        k(  117) = (  -0.4000000   0.0000000   0.2222222), wk =   0.0063492
        k(  118) = (  -0.4000000   0.0000000   0.3333333), wk =   0.0063492
        k(  119) = (  -0.4000000   0.0000000   0.4444444), wk =   0.0063492
        k(  120) = (  -0.4000000   0.1428571   0.0000000), wk =   0.0063492
        k(  121) = (  -0.4000000  -0.1428571   0.1111111), wk =   0.0063492
        k(  122) = (  -0.4000000   0.1428571  -0.1111111), wk =   0.0063492
        k(  123) = (   0.4000000  -0.1428571  -0.1111111), wk =   0.0063492
        k(  124) = (  -0.4000000  -0.1428571   0.2222222), wk =   0.0063492
        k(  125) = (  -0.4000000   0.1428571  -0.2222222), wk =   0.0063492
        k(  126) = (   0.4000000  -0.1428571  -0.2222222), wk =   0.0063492
        k(  127) = (  -0.4000000  -0.1428571   0.3333333), wk =   0.0063492
        k(  128) = (  -0.4000000   0.1428571  -0.3333333), wk =   0.0063492
        k(  129) = (   0.4000000  -0.1428571  -0.3333333), wk =   0.0063492
        k(  130) = (  -0.4000000  -0.1428571   0.4444444), wk =   0.0063492
        k(  131) = (  -0.4000000   0.1428571  -0.4444444), wk =   0.0063492
        k(  132) = (   0.4000000  -0.1428571  -0.4444444), wk =   0.0063492
        k(  133) = (  -0.4000000   0.2857143   0.0000000), wk =   0.0063492
        k(  134) = (  -0.4000000  -0.2857143   0.1111111), wk =   0.0063492
        k(  135) = (  -0.4000000   0.2857143  -0.1111111), wk =   0.0063492
        k(  136) = (   0.4000000  -0.2857143  -0.1111111), wk =   0.0063492
        k(  137) = (  -0.4000000  -0.2857143   0.2222222), wk =   0.0063492
        k(  138) = (  -0.4000000   0.2857143  -0.2222222), wk =   0.0063492
        k(  139) = (   0.4000000  -0.2857143  -0.2222222), wk =   0.0063492
        k(  140) = (  -0.4000000  -0.2857143   0.3333333), wk =   0.0063492
        k(  141) = (  -0.4000000   0.2857143  -0.3333333), wk =   0.0063492
        k(  142) = (   0.4000000  -0.2857143  -0.3333333), wk =   0.0063492
        k(  143) = (  -0.4000000  -0.2857143   0.4444444), wk =   0.0063492
        k(  144) = (  -0.4000000   0.2857143  -0.4444444), wk =   0.0063492
        k(  145) = (   0.4000000  -0.2857143  -0.4444444), wk =   0.0063492
        k(  146) = (  -0.4000000   0.4285714   0.0000000), wk =   0.0063492
        k(  147) = (  -0.4000000  -0.4285714   0.1111111), wk =   0.0063492
        k(  148) = (  -0.4000000   0.4285714  -0.1111111), wk =   0.0063492
        k(  149) = (   0.4000000  -0.4285714  -0.1111111), wk =   0.0063492
        k(  150) = (  -0.4000000  -0.4285714   0.2222222), wk =   0.0063492
        k(  151) = (  -0.4000000   0.4285714  -0.2222222), wk =   0.0063492
        k(  152) = (   0.4000000  -0.4285714  -0.2222222), wk =   0.0063492
        k(  153) = (  -0.4000000  -0.4285714   0.3333333), wk =   0.0063492
        k(  154) = (  -0.4000000   0.4285714  -0.3333333), wk =   0.0063492
        k(  155) = (   0.4000000  -0.4285714  -0.3333333), wk =   0.0063492
        k(  156) = (  -0.4000000  -0.4285714   0.4444444), wk =   0.0063492
        k(  157) = (  -0.4000000   0.4285714  -0.4444444), wk =   0.0063492
        k(  158) = (   0.4000000  -0.4285714  -0.4444444), wk =   0.0063492

     Dense  grid:  1273469 G-vectors     FFT dimensions: ( 216, 125, 100)

     Smooth grid:   287059 G-vectors     FFT dimensions: ( 125,  75,  60)

     Dynamical RAM for                 wfc:       1.95 MB

     Dynamical RAM for     wfc (w. buffer):     618.14 MB

     Dynamical RAM for           str. fact:       2.43 MB

     Dynamical RAM for           local pot:       0.00 MB

     Dynamical RAM for          nlocal pot:       4.79 MB

     Dynamical RAM for                qrad:      10.54 MB

     Dynamical RAM for          rho,v,vnew:       8.59 MB

     Dynamical RAM for               rhoin:       2.86 MB

     Dynamical RAM for            rho*nmix:      19.43 MB

     Dynamical RAM for           G-vectors:       2.35 MB

     Dynamical RAM for          h,s,v(r/c):       2.38 MB

     Dynamical RAM for          <psi|beta>:       0.49 MB

     Dynamical RAM for                 psi:       3.90 MB

     Dynamical RAM for                hpsi:       3.90 MB

     Dynamical RAM for                spsi:       3.90 MB

     Dynamical RAM for      wfcinit/wfcrot:       5.12 MB

     Dynamical RAM for           addusdens:     123.27 MB

     Dynamical RAM for          addusforce:     141.62 MB

     Dynamical RAM for         addusstress:     122.97 MB

     Estimated static dynamical RAM per process >     677.11 MB

     Estimated max dynamical RAM per process >     818.73 MB

     Estimated total dynamical RAM >      25.59 GB

     Check: negative core charge=   -0.000003
     Generating pointlists ...
     new r_m :   0.0770 (alat units)  1.4895 (a.u.) for type    1
     new r_m :   0.0881 (alat units)  1.7042 (a.u.) for type    2
     new r_m :   0.0610 (alat units)  1.1786 (a.u.) for type    3
     new r_m :   0.0610 (alat units)  1.1786 (a.u.) for type    4

     Initial potential from superposition of free atoms

     starting charge  188.99132, renormalised to  189.00000
     Starting wfcs are  137 randomized atomic wfcs
     Checking if some PAW data can be deallocated... 
       PAW data deallocated on   24 nodes for type:  1
       PAW data deallocated on   16 nodes for type:  3

     total cpu time spent up to now is     1358.0 secs

     Self-consistent Calculation

     iteration #  1     ecut=   100.00 Ry     beta= 0.40
     Davidson diagonalization with overlap
     ethr =  1.00E-02,  avg # of iterations =  3.0

     negative rho (up, down):  0.000E+00 6.815E-05

     total cpu time spent up to now is     5054.2 secs

     total energy              =   -2123.91507876 Ry
     estimated scf accuracy    <       6.82784327 Ry

     total magnetization       =    19.00 Bohr mag/cell
     absolute magnetization    =    19.00 Bohr mag/cell

     iteration #  2     ecut=   100.00 Ry     beta= 0.40
     Davidson diagonalization with overlap
     ethr =  3.61E-03,  avg # of iterations =  2.0

     negative rho (up, down):  0.000E+00 3.938E-05

     total cpu time spent up to now is     8495.9 secs

     total energy              =   -2122.32510956 Ry
     estimated scf accuracy    <      20.60169954 Ry

     total magnetization       =    10.02 Bohr mag/cell
     absolute magnetization    =    11.00 Bohr mag/cell

     iteration #  3     ecut=   100.00 Ry     beta= 0.40
     Davidson diagonalization with overlap
     ethr =  3.61E-03,  avg # of iterations =  2.0

     negative rho (up, down):  0.000E+00 3.022E-05

     total cpu time spent up to now is    11382.6 secs

     total energy              =   -2124.50521261 Ry
     estimated scf accuracy    <      29.60639392 Ry

     total magnetization       =    11.00 Bohr mag/cell
     absolute magnetization    =    11.95 Bohr mag/cell

     iteration #  4     ecut=   100.00 Ry     beta= 0.40
     Davidson diagonalization with overlap
     ethr =  3.61E-03,  avg # of iterations =  2.0

     negative rho (up, down):  0.000E+00 7.414E-05

     total cpu time spent up to now is    14221.7 secs

     total energy              =   -2125.46001871 Ry
     estimated scf accuracy    <       9.95339079 Ry

     total magnetization       =    14.95 Bohr mag/cell
     absolute magnetization    =    15.18 Bohr mag/cell

     iteration #  5     ecut=   100.00 Ry     beta= 0.40
     Davidson diagonalization with overlap
     ethr =  3.61E-03,  avg # of iterations =  1.5

     negative rho (up, down):  0.000E+00 1.014E-04

     total cpu time spent up to now is    16972.6 secs

     total energy              =   -2125.67228051 Ry
     estimated scf accuracy    <       6.99278681 Ry

     total magnetization       =    14.95 Bohr mag/cell
     absolute magnetization    =    15.09 Bohr mag/cell

     iteration #  6     ecut=   100.00 Ry     beta= 0.40
     Davidson diagonalization with overlap
     ethr =  3.61E-03,  avg # of iterations =  1.0

     negative rho (up, down):  0.000E+00 2.522E-04

     total cpu time spent up to now is    19671.2 secs

     total energy              =   -2126.00637935 Ry
     estimated scf accuracy    <       0.78972712 Ry

     total magnetization       =    19.00 Bohr mag/cell
     absolute magnetization    =    19.00 Bohr mag/cell

     iteration #  7     ecut=   100.00 Ry     beta= 0.40
     Davidson diagonalization with overlap
     ethr =  4.18E-04,  avg # of iterations =  1.2

     negative rho (up, down):  0.000E+00 3.201E-04

     total cpu time spent up to now is    22391.8 secs

     total energy              =   -2126.00791706 Ry
     estimated scf accuracy    <       0.26581458 Ry

     total magnetization       =    19.00 Bohr mag/cell
     absolute magnetization    =    19.00 Bohr mag/cell

     iteration #  8     ecut=   100.00 Ry     beta= 0.40
     Davidson diagonalization with overlap
     c_bands:  1 eigenvalues not converged
     ethr =  1.41E-04,  avg # of iterations =  8.3

     negative rho (up, down):  0.000E+00 4.317E-04

     total cpu time spent up to now is    25811.8 secs

     total energy              =   -2126.00391969 Ry
     estimated scf accuracy    <       0.79150144 Ry

     total magnetization       =    19.00 Bohr mag/cell
     absolute magnetization    =    19.01 Bohr mag/cell

     iteration #  9     ecut=   100.00 Ry     beta= 0.40
     Davidson diagonalization with overlap
     c_bands:  1 eigenvalues not converged
     ethr =  1.41E-04,  avg # of iterations =  1.4

     negative rho (up, down):  0.000E+00 7.532E-04

     total cpu time spent up to now is    28555.2 secs

     total energy              =   -2126.01896736 Ry
     estimated scf accuracy    <       0.24336451 Ry

     total magnetization       =    19.00 Bohr mag/cell
     absolute magnetization    =    19.01 Bohr mag/cell

     iteration # 10     ecut=   100.00 Ry     beta= 0.40
     Davidson diagonalization with overlap
     ethr =  1.29E-04,  avg # of iterations =  1.7

     negative rho (up, down):  0.000E+00 8.433E-04

     total cpu time spent up to now is    31325.3 secs

     total energy              =   -2126.02879343 Ry
     estimated scf accuracy    <       0.08376995 Ry

     total magnetization       =    19.00 Bohr mag/cell
     absolute magnetization    =    19.02 Bohr mag/cell

     iteration # 11     ecut=   100.00 Ry     beta= 0.40
     Davidson diagonalization with overlap
     c_bands:  1 eigenvalues not converged
     c_bands:  1 eigenvalues not converged
     c_bands:  2 eigenvalues not converged
     c_bands:  2 eigenvalues not converged
     c_bands:  1 eigenvalues not converged
     c_bands:  1 eigenvalues not converged
     c_bands:  1 eigenvalues not converged
     c_bands:  1 eigenvalues not converged
     c_bands:  1 eigenvalues not converged
     c_bands:  1 eigenvalues not converged
     ethr =  4.43E-05,  avg # of iterations =  9.8

     negative rho (up, down):  0.000E+00 8.671E-04

     total cpu time spent up to now is    34979.9 secs

     total energy              =   -2126.03288659 Ry
     estimated scf accuracy    <       0.05334270 Ry

     total magnetization       =    19.00 Bohr mag/cell
     absolute magnetization    =    19.02 Bohr mag/cell

     iteration # 12     ecut=   100.00 Ry     beta= 0.40
     Davidson diagonalization with overlap
     c_bands:  1 eigenvalues not converged
     ethr =  2.82E-05,  avg # of iterations =  2.5

     negative rho (up, down):  0.000E+00 9.131E-04

     total cpu time spent up to now is    37814.6 secs

     total energy              =   -2126.03471951 Ry
     estimated scf accuracy    <       0.02561381 Ry

     total magnetization       =    19.00 Bohr mag/cell
     absolute magnetization    =    19.03 Bohr mag/cell

     iteration # 13     ecut=   100.00 Ry     beta= 0.40
     Davidson diagonalization with overlap
     c_bands:  1 eigenvalues not converged
     c_bands:  1 eigenvalues not converged
     c_bands:  1 eigenvalues not converged
     c_bands:  2 eigenvalues not converged
     c_bands:  1 eigenvalues not converged
     c_bands:  1 eigenvalues not converged
     c_bands:  1 eigenvalues not converged
     c_bands:  1 eigenvalues not converged
     c_bands:  1 eigenvalues not converged
     c_bands:  1 eigenvalues not converged
     c_bands:  1 eigenvalues not converged
     c_bands:  1 eigenvalues not converged
     ethr =  1.36E-05,  avg # of iterations =  6.1

     negative rho (up, down):  0.000E+00 9.233E-04

     total cpu time spent up to now is    41022.5 secs

     total energy              =   -2126.03523610 Ry
     estimated scf accuracy    <       0.02528740 Ry

     total magnetization       =    19.00 Bohr mag/cell
     absolute magnetization    =    19.04 Bohr mag/cell

     iteration # 14     ecut=   100.00 Ry     beta= 0.40
     Davidson diagonalization with overlap
     ethr =  1.34E-05,  avg # of iterations =  1.2

     negative rho (up, down):  0.000E+00 9.214E-04

     total cpu time spent up to now is    43733.1 secs

     total energy              =   -2126.03590854 Ry
     estimated scf accuracy    <       0.00110801 Ry

     total magnetization       =    19.00 Bohr mag/cell
     absolute magnetization    =    19.04 Bohr mag/cell

     iteration # 15     ecut=   100.00 Ry     beta= 0.40
     Davidson diagonalization with overlap
     c_bands:  1 eigenvalues not converged
     c_bands:  1 eigenvalues not converged
     c_bands:  1 eigenvalues not converged
     c_bands:  1 eigenvalues not converged
     c_bands:  1 eigenvalues not converged
     c_bands:  1 eigenvalues not converged
     c_bands:  1 eigenvalues not converged
     c_bands:  1 eigenvalues not converged
     c_bands:  1 eigenvalues not converged
     c_bands:  1 eigenvalues not converged
     c_bands:  1 eigenvalues not converged
     c_bands:  1 eigenvalues not converged
     c_bands:  1 eigenvalues not converged
     c_bands:  1 eigenvalues not converged
     c_bands:  2 eigenvalues not converged
     c_bands:  1 eigenvalues not converged
     c_bands:  1 eigenvalues not converged
     c_bands:  1 eigenvalues not converged
     c_bands:  1 eigenvalues not converged
     c_bands:  1 eigenvalues not converged
     c_bands:  1 eigenvalues not converged
     c_bands:  1 eigenvalues not converged
     c_bands:  1 eigenvalues not converged
     c_bands:  1 eigenvalues not converged
     c_bands:  1 eigenvalues not converged
     c_bands:  2 eigenvalues not converged
     c_bands:  1 eigenvalues not converged
     c_bands:  1 eigenvalues not converged
     c_bands:  1 eigenvalues not converged
     c_bands:  1 eigenvalues not converged
     c_bands:  1 eigenvalues not converged
     c_bands:  1 eigenvalues not converged
     c_bands:  1 eigenvalues not converged
     c_bands:  1 eigenvalues not converged
     c_bands:  1 eigenvalues not converged
     c_bands:  1 eigenvalues not converged
     c_bands:  1 eigenvalues not converged
     c_bands:  1 eigenvalues not converged
     c_bands:  1 eigenvalues not converged
     c_bands:  1 eigenvalues not converged
     c_bands:  1 eigenvalues not converged
     c_bands:  1 eigenvalues not converged
     c_bands:  1 eigenvalues not converged
     ethr =  5.86E-07,  avg # of iterations = 11.4

     negative rho (up, down):  0.000E+00 9.097E-04

     total cpu time spent up to now is    49175.1 secs

     total energy              =   -2126.03647025 Ry
     estimated scf accuracy    <       0.00131315 Ry

     total magnetization       =    19.00 Bohr mag/cell
     absolute magnetization    =    19.04 Bohr mag/cell

     iteration # 16     ecut=   100.00 Ry     beta= 0.40
     Davidson diagonalization with overlap
     c_bands:  1 eigenvalues not converged
     c_bands:  1 eigenvalues not converged
     c_bands:  1 eigenvalues not converged
     ethr =  5.86E-07,  avg # of iterations =  1.6

     negative rho (up, down):  0.000E+00 9.075E-04

     total cpu time spent up to now is    51912.8 secs

     total energy              =   -2126.03648366 Ry
     estimated scf accuracy    <       0.00058972 Ry

     total magnetization       =    19.00 Bohr mag/cell
     absolute magnetization    =    19.04 Bohr mag/cell

     iteration # 17     ecut=   100.00 Ry     beta= 0.40
     Davidson diagonalization with overlap
     ethr =  3.12E-07,  avg # of iterations =  1.1

     negative rho (up, down):  0.000E+00 9.027E-04

     total cpu time spent up to now is    54611.8 secs

     total energy              =   -2126.03649996 Ry
     estimated scf accuracy    <       0.00018847 Ry

     total magnetization       =    19.00 Bohr mag/cell
     absolute magnetization    =    19.04 Bohr mag/cell

     iteration # 18     ecut=   100.00 Ry     beta= 0.40
     Davidson diagonalization with overlap
     ethr =  9.97E-08,  avg # of iterations =  1.0

     negative rho (up, down):  0.000E+00 8.997E-04

     total cpu time spent up to now is    57303.7 secs

     total energy              =   -2126.03650501 Ry
     estimated scf accuracy    <       0.00004249 Ry

     total magnetization       =    19.00 Bohr mag/cell
     absolute magnetization    =    19.04 Bohr mag/cell

     iteration # 19     ecut=   100.00 Ry     beta= 0.40
     Davidson diagonalization with overlap
     ethr =  2.25E-08,  avg # of iterations =  1.4

     negative rho (up, down):  0.000E+00 8.986E-04

     total cpu time spent up to now is    60039.3 secs

     total energy              =   -2126.03650757 Ry
     estimated scf accuracy    <       0.00001624 Ry

     total magnetization       =    19.00 Bohr mag/cell
     absolute magnetization    =    19.04 Bohr mag/cell

     iteration # 20     ecut=   100.00 Ry     beta= 0.40
     Davidson diagonalization with overlap
     ethr =  8.59E-09,  avg # of iterations =  2.4

     negative rho (up, down):  0.000E+00 8.988E-04

     total cpu time spent up to now is    62936.7 secs

     total energy              =   -2126.03650909 Ry
     estimated scf accuracy    <       0.00000425 Ry

     total magnetization       =    19.00 Bohr mag/cell
     absolute magnetization    =    19.04 Bohr mag/cell

     iteration # 21     ecut=   100.00 Ry     beta= 0.40
     Davidson diagonalization with overlap
     ethr =  2.25E-09,  avg # of iterations =  4.3

     negative rho (up, down):  0.000E+00 8.989E-04

     total cpu time spent up to now is    66778.1 secs

     total energy              =   -2126.03651051 Ry
     estimated scf accuracy    <       0.00000035 Ry

     total magnetization       =    19.00 Bohr mag/cell
     absolute magnetization    =    19.04 Bohr mag/cell

     iteration # 22     ecut=   100.00 Ry     beta= 0.40
     Davidson diagonalization with overlap
     ethr =  1.87E-10,  avg # of iterations =  3.0

     negative rho (up, down):  0.000E+00 8.994E-04

     total cpu time spent up to now is    70253.6 secs

     total energy              =   -2126.03651068 Ry
     estimated scf accuracy    <       0.00000070 Ry

     total magnetization       =    19.00 Bohr mag/cell
     absolute magnetization    =    19.04 Bohr mag/cell

     iteration # 23     ecut=   100.00 Ry     beta= 0.40
     Davidson diagonalization with overlap
     ethr =  1.87E-10,  avg # of iterations =  1.0

     negative rho (up, down):  0.000E+00 8.993E-04

     total cpu time spent up to now is    72952.5 secs

     total energy              =   -2126.03651069 Ry
     estimated scf accuracy    <       0.00000046 Ry

     total magnetization       =    19.00 Bohr mag/cell
     absolute magnetization    =    19.04 Bohr mag/cell

     iteration # 24     ecut=   100.00 Ry     beta= 0.40
     Davidson diagonalization with overlap
     ethr =  1.87E-10,  avg # of iterations =  2.0

     negative rho (up, down):  0.000E+00 8.993E-04

     total cpu time spent up to now is    75828.9 secs

     total energy              =   -2126.03651078 Ry
     estimated scf accuracy    <       0.00000048 Ry

     total magnetization       =    19.00 Bohr mag/cell
     absolute magnetization    =    19.04 Bohr mag/cell

     iteration # 25     ecut=   100.00 Ry     beta= 0.40
     Davidson diagonalization with overlap
     ethr =  1.87E-10,  avg # of iterations =  1.0

     negative rho (up, down):  0.000E+00 8.991E-04

     total cpu time spent up to now is    78525.1 secs

     total energy              =   -2126.03651081 Ry
     estimated scf accuracy    <       0.00000007 Ry

     total magnetization       =    19.00 Bohr mag/cell
     absolute magnetization    =    19.04 Bohr mag/cell

     iteration # 26     ecut=   100.00 Ry     beta= 0.40
     Davidson diagonalization with overlap
     ethr =  3.79E-11,  avg # of iterations =  2.1

     negative rho (up, down):  0.000E+00 8.991E-04

     total cpu time spent up to now is    81403.9 secs

     total energy              =   -2126.03651082 Ry
     estimated scf accuracy    <          9.1E-09 Ry

     total magnetization       =    19.00 Bohr mag/cell
     absolute magnetization    =    19.04 Bohr mag/cell

     iteration # 27     ecut=   100.00 Ry     beta= 0.40
     Davidson diagonalization with overlap
     ethr =  4.83E-12,  avg # of iterations =  3.5

     negative rho (up, down):  0.000E+00 8.990E-04

     total cpu time spent up to now is    85200.2 secs

     total energy              =   -2126.03651083 Ry
     estimated scf accuracy    <       0.00000002 Ry

     total magnetization       =    19.00 Bohr mag/cell
     absolute magnetization    =    19.04 Bohr mag/cell

     iteration # 28     ecut=   100.00 Ry     beta= 0.40
     Davidson diagonalization with overlap
     ethr =  4.83E-12,  avg # of iterations =  1.4

     negative rho (up, down):  0.000E+00 8.990E-04

     total cpu time spent up to now is    87942.9 secs

     total energy              =   -2126.03651083 Ry
     estimated scf accuracy    <          4.8E-09 Ry

     total magnetization       =    19.00 Bohr mag/cell
     absolute magnetization    =    19.04 Bohr mag/cell

     iteration # 29     ecut=   100.00 Ry     beta= 0.40
     Davidson diagonalization with overlap
     ethr =  2.55E-12,  avg # of iterations =  1.6

     negative rho (up, down):  0.000E+00 8.990E-04

     total cpu time spent up to now is    90715.8 secs

     total energy              =   -2126.03651083 Ry
     estimated scf accuracy    <          1.6E-09 Ry

     total magnetization       =    19.00 Bohr mag/cell
     absolute magnetization    =    19.04 Bohr mag/cell

     iteration # 30     ecut=   100.00 Ry     beta= 0.40
     Davidson diagonalization with overlap
     ethr =  8.36E-13,  avg # of iterations =  2.0

     negative rho (up, down):  0.000E+00 8.991E-04

     total cpu time spent up to now is    93572.2 secs

     total energy              =   -2126.03651083 Ry
     estimated scf accuracy    <          1.6E-09 Ry

     total magnetization       =    19.00 Bohr mag/cell
     absolute magnetization    =    19.04 Bohr mag/cell

     iteration # 31     ecut=   100.00 Ry     beta= 0.40
     Davidson diagonalization with overlap
     ethr =  8.36E-13,  avg # of iterations =  2.0

     negative rho (up, down):  0.000E+00 8.991E-04

     total cpu time spent up to now is    96417.5 secs

     total energy              =   -2126.03651083 Ry
     estimated scf accuracy    <          3.0E-10 Ry

     total magnetization       =    19.00 Bohr mag/cell
     absolute magnetization    =    19.04 Bohr mag/cell

     iteration # 32     ecut=   100.00 Ry     beta= 0.40
     Davidson diagonalization with overlap
     ethr =  1.60E-13,  avg # of iterations =  3.5

     negative rho (up, down):  0.000E+00 8.991E-04

     Magnetic moment per site:
     atom:    1    charge:    7.8836    magn:    0.0012    constr:    0.0000
     atom:    2    charge:   12.8630    magn:    3.5986    constr:    0.0000
     atom:    3    charge:   12.8634    magn:    3.6021    constr:    0.0000
     atom:    4    charge:   12.8666    magn:    3.5946    constr:    0.0000
     atom:    5    charge:   12.8562    magn:    3.6163    constr:    0.0000
     atom:    6    charge:    0.8108    magn:    0.0099    constr:    0.0000
     atom:    7    charge:    0.8028    magn:    0.0111    constr:    0.0000
     atom:    8    charge:    0.8112    magn:    0.0099    constr:    0.0000
     atom:    9    charge:    0.8010    magn:    0.0109    constr:    0.0000
     atom:   10    charge:    4.1663    magn:    0.1564    constr:    0.0000
     atom:   11    charge:    4.1750    magn:    0.1096    constr:    0.0000
     atom:   12    charge:    4.1652    magn:    0.1369    constr:    0.0000
     atom:   13    charge:    4.1745    magn:    0.1135    constr:    0.0000
     atom:   14    charge:    4.1881    magn:    0.1126    constr:    0.0000
     atom:   15    charge:    4.1926    magn:    0.0888    constr:    0.0000
     atom:   16    charge:    4.1907    magn:    0.1171    constr:    0.0000
     atom:   17    charge:    4.2011    magn:    0.0908    constr:    0.0000
     atom:   18    charge:    4.1761    magn:    0.1310    constr:    0.0000
     atom:   19    charge:    4.1648    magn:    0.1434    constr:    0.0000
     atom:   20    charge:    4.1655    magn:    0.1270    constr:    0.0000
     atom:   21    charge:    4.1723    magn:    0.1551    constr:    0.0000
     atom:   22    charge:    4.1808    magn:    0.1308    constr:    0.0000
     atom:   23    charge:    4.1644    magn:    0.1415    constr:    0.0000
     atom:   24    charge:    4.1668    magn:    0.1124    constr:    0.0000
     atom:   25    charge:    4.1770    magn:    0.1587    constr:    0.0000

     total cpu time spent up to now is    99650.0 secs

     End of self-consistent calculation

 ------ SPIN UP ------------


          k = 0.0000 0.0000 0.0000 ( 35837 PWs)   bands (ev):

   -84.8976 -84.8508 -84.7418 -84.7251 -50.9947 -50.9865 -50.9627 -50.9337
   -50.9089 -50.8771 -50.8173 -50.7477 -50.6766 -50.6591 -50.5664 -50.5372
   -44.6878 -16.8111 -16.6993 -16.6678 -16.2247 -16.0160 -15.9143 -15.7237
   -13.8525 -13.7041 -13.6734 -13.5594 -13.5042 -13.4556 -13.3770 -13.3258
   -13.3101 -13.2690 -13.1569 -13.1028  -4.1986  -3.7894  -3.4334  -3.2547
    -2.1479  -2.0240  -1.7307  -1.6794  -1.3866  -1.2260  -1.1654  -1.1134
    -1.0515  -0.8807  -0.8318  -0.6863  -0.1005  -0.0064   0.2290   0.4576
     0.4770   0.5403   0.5872   0.7472   0.8990   0.9431   1.0769   1.1360
     1.2875   1.3907   1.5024   1.6071   1.7182   1.7329   1.9631   2.0138
     2.0721   2.1740   2.2524   2.4200   2.4748   2.5615   2.5684   2.6328
     2.7543   2.9295   3.0478   3.1387   3.2447   3.2662   3.3078   3.4771
     3.5274   3.6689   3.7823   3.7994   3.9602   4.0815   4.0968   4.1803
     4.2103   4.3320   4.3827   4.4559   4.6381   4.6801   5.0705   5.1731
     9.3525  11.2020  11.5381  12.1933  12.4435  13.3192  13.3407  13.5929
    13.7500  13.8062

     occupation numbers 
     1.0000   1.0000   1.0000   1.0000   1.0000   1.0000   1.0000   1.0000
     1.0000   1.0000   1.0000   1.0000   1.0000   1.0000   1.0000   1.0000
     1.0000   1.0000   1.0000   1.0000   1.0000   1.0000   1.0000   1.0000
     1.0000   1.0000   1.0000   1.0000   1.0000   1.0000   1.0000   1.0000
     1.0000   1.0000   1.0000   1.0000   1.0000   1.0000   1.0000   1.0000
     1.0000   1.0000   1.0000   1.0000   1.0000   1.0000   1.0000   1.0000
     1.0000   1.0000   1.0000   1.0000   1.0000   1.0000   1.0000   1.0000
     1.0000   1.0000   1.0000   1.0000   1.0000   1.0000   1.0000   1.0000
     1.0000   1.0000   1.0000   1.0000   1.0000   1.0000   1.0000   1.0000
     1.0000   1.0000   1.0000   1.0000   1.0000   1.0000   1.0000   1.0000
     1.0000   1.0000   1.0000   1.0000   1.0000   1.0000   1.0000   1.0000
     1.0000   1.0000   1.0000   1.0000   1.0000   1.0000   1.0000   1.0000
     1.0000   1.0000   1.0000   1.0000   1.0000   1.0000   1.0000   1.0000
     0.0000   0.0000   0.0000   0.0000   0.0000   0.0000   0.0000   0.0000
     0.0000   0.0000

          k = 0.0000 0.0000 0.2298 ( 35841 PWs)   bands (ev):

   -84.8976 -84.8508 -84.7418 -84.7251 -50.9947 -50.9865 -50.9627 -50.9337
   -50.9089 -50.8771 -50.8173 -50.7477 -50.6766 -50.6591 -50.5664 -50.5372
   -44.6878 -16.8106 -16.6993 -16.6711 -16.2082 -16.0106 -15.9049 -15.7255
   -13.8585 -13.7284 -13.6592 -13.5598 -13.5047 -13.4581 -13.3870 -13.3355
   -13.3189 -13.2670 -13.1669 -13.0982  -4.1661  -3.7764  -3.4391  -3.2395
    -2.1257  -2.0202  -1.7491  -1.6412  -1.3835  -1.2321  -1.1516  -1.1064
    -1.0125  -0.9004  -0.8561  -0.6750  -0.0828   0.0011   0.2353   0.4172
     0.4675   0.5393   0.6070   0.7279   0.9128   0.9725   1.0606   1.1232
     1.2532   1.4073   1.5063   1.6161   1.6706   1.8143   1.9546   2.0168
     2.0553   2.1803   2.2695   2.3919   2.4691   2.5000   2.5572   2.6392
     2.7559   2.9284   3.0469   3.0934   3.2294   3.2526   3.3208   3.4364
     3.5218   3.6861   3.7851   3.8090   3.9138   4.0682   4.1082   4.1872
     4.2004   4.3314   4.3726   4.4821   4.6350   4.6948   5.0575   5.1809
     9.4964  11.2623  11.5920  12.2141  12.4977  13.1962  13.3918  13.5763
    13.6795  13.7681

     occupation numbers 
     1.0000   1.0000   1.0000   1.0000   1.0000   1.0000   1.0000   1.0000
     1.0000   1.0000   1.0000   1.0000   1.0000   1.0000   1.0000   1.0000
     1.0000   1.0000   1.0000   1.0000   1.0000   1.0000   1.0000   1.0000
     1.0000   1.0000   1.0000   1.0000   1.0000   1.0000   1.0000   1.0000
     1.0000   1.0000   1.0000   1.0000   1.0000   1.0000   1.0000   1.0000
     1.0000   1.0000   1.0000   1.0000   1.0000   1.0000   1.0000   1.0000
     1.0000   1.0000   1.0000   1.0000   1.0000   1.0000   1.0000   1.0000
     1.0000   1.0000   1.0000   1.0000   1.0000   1.0000   1.0000   1.0000
     1.0000   1.0000   1.0000   1.0000   1.0000   1.0000   1.0000   1.0000
     1.0000   1.0000   1.0000   1.0000   1.0000   1.0000   1.0000   1.0000
     1.0000   1.0000   1.0000   1.0000   1.0000   1.0000   1.0000   1.0000
     1.0000   1.0000   1.0000   1.0000   1.0000   1.0000   1.0000   1.0000
     1.0000   1.0000   1.0000   1.0000   1.0000   1.0000   1.0000   1.0000
     0.0000   0.0000   0.0000   0.0000   0.0000   0.0000   0.0000   0.0000
     0.0000   0.0000

          k = 0.0000 0.0000 0.4597 ( 35884 PWs)   bands (ev):

   -84.8976 -84.8508 -84.7418 -84.7251 -50.9947 -50.9865 -50.9627 -50.9337
   -50.9089 -50.8771 -50.8173 -50.7477 -50.6766 -50.6591 -50.5664 -50.5372
   -44.6878 -16.8091 -16.6995 -16.6788 -16.1644 -15.9971 -15.8803 -15.7326
   -13.8762 -13.7700 -13.6445 -13.5658 -13.5033 -13.4615 -13.4101 -13.3586
   -13.3334 -13.2702 -13.1873 -13.0930  -4.0804  -3.7414  -3.4449  -3.2203
    -2.1015  -1.9789  -1.7264  -1.6064  -1.3761  -1.2325  -1.1681  -1.0406
    -0.9559  -0.9101  -0.9033  -0.6792  -0.0642   0.0371   0.2675   0.3671
     0.4499   0.5336   0.6111   0.7898   0.9226   0.9697   1.0245   1.1336
     1.2437   1.4271   1.4752   1.5935   1.7017   1.8183   1.9419   1.9606
     2.0636   2.1720   2.2658   2.3330   2.3995   2.4569   2.5640   2.6362
     2.7415   2.8957   2.9555   3.0498   3.1064   3.2765   3.3640   3.4302
     3.5344   3.7089   3.7577   3.8075   3.8812   4.0574   4.0947   4.1774
     4.2091   4.3286   4.3523   4.5322   4.6278   4.7232   5.0443   5.1878
     9.8833  11.4150  11.7155  12.2805  12.6330  12.9376  13.4003  13.5038
    13.5484  13.7026

     occupation numbers 
     1.0000   1.0000   1.0000   1.0000   1.0000   1.0000   1.0000   1.0000
     1.0000   1.0000   1.0000   1.0000   1.0000   1.0000   1.0000   1.0000
     1.0000   1.0000   1.0000   1.0000   1.0000   1.0000   1.0000   1.0000
     1.0000   1.0000   1.0000   1.0000   1.0000   1.0000   1.0000   1.0000
     1.0000   1.0000   1.0000   1.0000   1.0000   1.0000   1.0000   1.0000
     1.0000   1.0000   1.0000   1.0000   1.0000   1.0000   1.0000   1.0000
     1.0000   1.0000   1.0000   1.0000   1.0000   1.0000   1.0000   1.0000
     1.0000   1.0000   1.0000   1.0000   1.0000   1.0000   1.0000   1.0000
     1.0000   1.0000   1.0000   1.0000   1.0000   1.0000   1.0000   1.0000
     1.0000   1.0000   1.0000   1.0000   1.0000   1.0000   1.0000   1.0000
     1.0000   1.0000   1.0000   1.0000   1.0000   1.0000   1.0000   1.0000
     1.0000   1.0000   1.0000   1.0000   1.0000   1.0000   1.0000   1.0000
     1.0000   1.0000   1.0000   1.0000   1.0000   1.0000   1.0000   1.0000
     0.0000   0.0000   0.0000   0.0000   0.0000   0.0000   0.0000   0.0000
     0.0000   0.0000

          k = 0.0000 0.0000 0.6895 ( 35896 PWs)   bands (ev):

   -84.8976 -84.8508 -84.7418 -84.7251 -50.9947 -50.9865 -50.9627 -50.9337
   -50.9089 -50.8771 -50.8173 -50.7477 -50.6766 -50.6591 -50.5664 -50.5372
   -44.6878 -16.8075 -16.7003 -16.6862 -16.1089 -15.9818 -15.8496 -15.7481
   -13.8990 -13.8121 -13.6359 -13.5782 -13.5033 -13.4573 -13.4330 -13.3802
   -13.3488 -13.2762 -13.2060 -13.0943  -3.9752  -3.6956  -3.4446  -3.2274
    -2.0921  -1.9175  -1.6548  -1.5854  -1.3767  -1.2362  -1.1848  -1.0332
    -0.9360  -0.8912  -0.8598  -0.7227  -0.0719   0.0876   0.3129   0.3924
     0.4521   0.5635   0.6571   0.8430   0.9345   0.9709   1.0531   1.1013
     1.2823   1.3947   1.4483   1.5314   1.7113   1.7541   1.8037   1.9157
     2.0339   2.0781   2.2423   2.3144   2.3887   2.4630   2.5538   2.5930
     2.7432   2.8094   2.8494   2.9165   3.1128   3.3267   3.4319   3.4725
     3.5376   3.7040   3.7326   3.8043   3.8929   4.0694   4.0876   4.1458
     4.2079   4.2934   4.3541   4.5738   4.6199   4.7484   5.0568   5.1790
    10.4132  11.5793  11.8272  12.3463  12.4789  12.9628  13.2967  13.3816
    13.4808  13.6608

     occupation numbers 
     1.0000   1.0000   1.0000   1.0000   1.0000   1.0000   1.0000   1.0000
     1.0000   1.0000   1.0000   1.0000   1.0000   1.0000   1.0000   1.0000
     1.0000   1.0000   1.0000   1.0000   1.0000   1.0000   1.0000   1.0000
     1.0000   1.0000   1.0000   1.0000   1.0000   1.0000   1.0000   1.0000
     1.0000   1.0000   1.0000   1.0000   1.0000   1.0000   1.0000   1.0000
     1.0000   1.0000   1.0000   1.0000   1.0000   1.0000   1.0000   1.0000
     1.0000   1.0000   1.0000   1.0000   1.0000   1.0000   1.0000   1.0000
     1.0000   1.0000   1.0000   1.0000   1.0000   1.0000   1.0000   1.0000
     1.0000   1.0000   1.0000   1.0000   1.0000   1.0000   1.0000   1.0000
     1.0000   1.0000   1.0000   1.0000   1.0000   1.0000   1.0000   1.0000
     1.0000   1.0000   1.0000   1.0000   1.0000   1.0000   1.0000   1.0000
     1.0000   1.0000   1.0000   1.0000   1.0000   1.0000   1.0000   1.0000
     1.0000   1.0000   1.0000   1.0000   1.0000   1.0000   1.0000   1.0000
     0.0000   0.0000   0.0000   0.0000   0.0000   0.0000   0.0000   0.0000
     0.0000   0.0000

          k = 0.0000 0.0000 0.9194 ( 35906 PWs)   bands (ev):

   -84.8976 -84.8508 -84.7418 -84.7251 -50.9947 -50.9865 -50.9627 -50.9337
   -50.9089 -50.8771 -50.8173 -50.7477 -50.6766 -50.6591 -50.5664 -50.5372
   -44.6878 -16.8065 -16.7016 -16.6899 -16.0672 -15.9725 -15.8243 -15.7678
   -13.9143 -13.8405 -13.6321 -13.5882 -13.5057 -13.4563 -13.4395 -13.3938
   -13.3584 -13.2787 -13.2170 -13.0985  -3.9005  -3.6605  -3.4407  -3.2517
    -2.0781  -1.8878  -1.6039  -1.5511  -1.3896  -1.2555  -1.1892  -1.0589
    -0.9092  -0.8656  -0.8276  -0.7603  -0.0825   0.1309   0.3225   0.3609
     0.5841   0.6322   0.7780   0.8556   0.9123   0.9985   1.0480   1.1206
     1.2947   1.3385   1.4017   1.4441   1.5975   1.6437   1.7753   1.9112
     1.9914   2.0785   2.1649   2.2654   2.3694   2.4585   2.5483   2.6249
     2.7017   2.7974   2.8212   2.8452   3.1141   3.3488   3.4670   3.5117
     3.5503   3.6741   3.7335   3.8267   3.9492   4.0426   4.0954   4.1176
     4.1936   4.2462   4.3727   4.5909   4.6214   4.7612   5.0868   5.1567
    10.9478  11.5954  11.8568  12.0973  12.4782  13.1629  13.2395  13.3154
    13.4509  13.5598

     occupation numbers 
     1.0000   1.0000   1.0000   1.0000   1.0000   1.0000   1.0000   1.0000
     1.0000   1.0000   1.0000   1.0000   1.0000   1.0000   1.0000   1.0000
     1.0000   1.0000   1.0000   1.0000   1.0000   1.0000   1.0000   1.0000
     1.0000   1.0000   1.0000   1.0000   1.0000   1.0000   1.0000   1.0000
     1.0000   1.0000   1.0000   1.0000   1.0000   1.0000   1.0000   1.0000
     1.0000   1.0000   1.0000   1.0000   1.0000   1.0000   1.0000   1.0000
     1.0000   1.0000   1.0000   1.0000   1.0000   1.0000   1.0000   1.0000
     1.0000   1.0000   1.0000   1.0000   1.0000   1.0000   1.0000   1.0000
     1.0000   1.0000   1.0000   1.0000   1.0000   1.0000   1.0000   1.0000
     1.0000   1.0000   1.0000   1.0000   1.0000   1.0000   1.0000   1.0000
     1.0000   1.0000   1.0000   1.0000   1.0000   1.0000   1.0000   1.0000
     1.0000   1.0000   1.0000   1.0000   1.0000   1.0000   1.0000   1.0000
     1.0000   1.0000   1.0000   1.0000   1.0000   1.0000   1.0000   1.0000
     0.0000   0.0000   0.0000   0.0000   0.0000   0.0000   0.0000   0.0000
     0.0000   0.0000

          k = 0.0000 0.2351 0.0000 ( 35823 PWs)   bands (ev):

   -84.8976 -84.8508 -84.7418 -84.7251 -50.9947 -50.9865 -50.9627 -50.9337
   -50.9089 -50.8771 -50.8173 -50.7477 -50.6766 -50.6591 -50.5664 -50.5372
   -44.6878 -16.8195 -16.7014 -16.6673 -16.1995 -16.0064 -15.9116 -15.7406
   -13.8668 -13.7131 -13.6630 -13.5632 -13.5246 -13.4422 -13.3731 -13.3349
   -13.3123 -13.2624 -13.1564 -13.1011  -4.1602  -3.7531  -3.4474  -3.2506
    -2.1327  -1.9909  -1.7260  -1.6610  -1.3977  -1.2441  -1.1535  -1.0847
    -1.0433  -0.8872  -0.8345  -0.6628  -0.1080  -0.0288   0.2220   0.3777
     0.4761   0.5080   0.5983   0.7089   0.8803   0.9560   1.1144   1.1492
     1.2976   1.3682   1.5045   1.5942   1.7326   1.7513   1.9556   2.0027
     2.0325   2.1163   2.2939   2.3681   2.4190   2.5019   2.5906   2.6898
     2.7797   2.9091   3.0201   3.0956   3.1968   3.2619   3.3780   3.4905
     3.5271   3.6178   3.7204   3.8499   3.9990   4.0175   4.1112   4.1708
     4.2110   4.2351   4.3795   4.4644   4.7335   4.7942   5.1197   5.1825
     9.5090  11.2757  11.6305  12.1085  12.4853  13.1800  13.3508  13.4735
    13.7203  13.7919

     occupation numbers 
     1.0000   1.0000   1.0000   1.0000   1.0000   1.0000   1.0000   1.0000
     1.0000   1.0000   1.0000   1.0000   1.0000   1.0000   1.0000   1.0000
     1.0000   1.0000   1.0000   1.0000   1.0000   1.0000   1.0000   1.0000
     1.0000   1.0000   1.0000   1.0000   1.0000   1.0000   1.0000   1.0000
     1.0000   1.0000   1.0000   1.0000   1.0000   1.0000   1.0000   1.0000
     1.0000   1.0000   1.0000   1.0000   1.0000   1.0000   1.0000   1.0000
     1.0000   1.0000   1.0000   1.0000   1.0000   1.0000   1.0000   1.0000
     1.0000   1.0000   1.0000   1.0000   1.0000   1.0000   1.0000   1.0000
     1.0000   1.0000   1.0000   1.0000   1.0000   1.0000   1.0000   1.0000
     1.0000   1.0000   1.0000   1.0000   1.0000   1.0000   1.0000   1.0000
     1.0000   1.0000   1.0000   1.0000   1.0000   1.0000   1.0000   1.0000
     1.0000   1.0000   1.0000   1.0000   1.0000   1.0000   1.0000   1.0000
     1.0000   1.0000   1.0000   1.0000   1.0000   1.0000   1.0000   1.0000
     0.0000   0.0000   0.0000   0.0000   0.0000   0.0000   0.0000   0.0000
     0.0000   0.0000

          k = 0.0000 0.2351 0.2298 ( 35841 PWs)   bands (ev):

   -84.8976 -84.8508 -84.7418 -84.7251 -50.9947 -50.9865 -50.9627 -50.9337
   -50.9089 -50.8771 -50.8173 -50.7477 -50.6766 -50.6591 -50.5664 -50.5372
   -44.6878 -16.8198 -16.7018 -16.6700 -16.1837 -15.9940 -15.9069 -15.7425
   -13.8697 -13.7387 -13.6518 -13.5621 -13.5283 -13.4562 -13.3829 -13.3294
   -13.3204 -13.2631 -13.1644 -13.0989  -4.1354  -3.7474  -3.4423  -3.2210
    -2.1150  -1.9860  -1.7583  -1.6081  -1.3848  -1.2267  -1.1494  -1.0913
    -1.0463  -0.8995  -0.8613  -0.6305  -0.0772  -0.0317   0.2374   0.3871
     0.4559   0.5359   0.6093   0.7332   0.8334   0.9371   1.0787   1.1441
     1.2129   1.3579   1.5086   1.5845   1.6829   1.8320   1.9600   1.9978
     2.0899   2.1300   2.2744   2.3287   2.4378   2.5205   2.5776   2.6923
     2.7962   2.9252   2.9818   3.0901   3.1948   3.2306   3.3471   3.4289
     3.5100   3.6133   3.7148   3.8447   3.9820   4.0284   4.1007   4.1863
     4.1950   4.2419   4.4061   4.4856   4.7328   4.8094   5.0776   5.2066
     9.6457  11.3398  11.6824  12.1161  12.5654  13.1503  13.3265  13.5156
    13.6404  13.7497

     occupation numbers 
     1.0000   1.0000   1.0000   1.0000   1.0000   1.0000   1.0000   1.0000
     1.0000   1.0000   1.0000   1.0000   1.0000   1.0000   1.0000   1.0000
     1.0000   1.0000   1.0000   1.0000   1.0000   1.0000   1.0000   1.0000
     1.0000   1.0000   1.0000   1.0000   1.0000   1.0000   1.0000   1.0000
     1.0000   1.0000   1.0000   1.0000   1.0000   1.0000   1.0000   1.0000
     1.0000   1.0000   1.0000   1.0000   1.0000   1.0000   1.0000   1.0000
     1.0000   1.0000   1.0000   1.0000   1.0000   1.0000   1.0000   1.0000
     1.0000   1.0000   1.0000   1.0000   1.0000   1.0000   1.0000   1.0000
     1.0000   1.0000   1.0000   1.0000   1.0000   1.0000   1.0000   1.0000
     1.0000   1.0000   1.0000   1.0000   1.0000   1.0000   1.0000   1.0000
     1.0000   1.0000   1.0000   1.0000   1.0000   1.0000   1.0000   1.0000
     1.0000   1.0000   1.0000   1.0000   1.0000   1.0000   1.0000   1.0000
     1.0000   1.0000   1.0000   1.0000   1.0000   1.0000   1.0000   1.0000
     0.0000   0.0000   0.0000   0.0000   0.0000   0.0000   0.0000   0.0000
     0.0000   0.0000

          k = 0.0000 0.2351 0.4597 ( 35884 PWs)   bands (ev):

   -84.8976 -84.8508 -84.7418 -84.7251 -50.9947 -50.9865 -50.9627 -50.9337
   -50.9089 -50.8771 -50.8173 -50.7477 -50.6766 -50.6591 -50.5664 -50.5372
   -44.6878 -16.8182 -16.7021 -16.6771 -16.1432 -15.9743 -15.8866 -15.7479
   -13.8841 -13.7733 -13.6473 -13.5783 -13.5132 -13.4759 -13.4042 -13.3462
   -13.3340 -13.2641 -13.1829 -13.0949  -4.0560  -3.7193  -3.4365  -3.1836
    -2.0908  -1.9707  -1.7208  -1.5748  -1.3756  -1.2139  -1.1616  -1.0644
    -0.9851  -0.9169  -0.8872  -0.6364  -0.0831   0.0164   0.2736   0.3905
     0.4335   0.5700   0.5993   0.7436   0.8618   0.9182   1.0233   1.1271
     1.1979   1.3642   1.4576   1.5870   1.6561   1.8553   1.9324   1.9961
     2.0381   2.2025   2.2473   2.3242   2.3846   2.5285   2.5830   2.6677
     2.7595   2.8727   2.9575   3.0298   3.0865   3.2343   3.3362   3.4035
     3.5091   3.6164   3.7040   3.8157   3.9745   4.0177   4.0888   4.1817
     4.2147   4.2570   4.4151   4.5325   4.7448   4.8086   5.0483   5.2230
    10.0151  11.4933  11.7973  12.1864  12.7117  12.9643  13.3047  13.5109
    13.5617  13.6373

     occupation numbers 
     1.0000   1.0000   1.0000   1.0000   1.0000   1.0000   1.0000   1.0000
     1.0000   1.0000   1.0000   1.0000   1.0000   1.0000   1.0000   1.0000
     1.0000   1.0000   1.0000   1.0000   1.0000   1.0000   1.0000   1.0000
     1.0000   1.0000   1.0000   1.0000   1.0000   1.0000   1.0000   1.0000
     1.0000   1.0000   1.0000   1.0000   1.0000   1.0000   1.0000   1.0000
     1.0000   1.0000   1.0000   1.0000   1.0000   1.0000   1.0000   1.0000
     1.0000   1.0000   1.0000   1.0000   1.0000   1.0000   1.0000   1.0000
     1.0000   1.0000   1.0000   1.0000   1.0000   1.0000   1.0000   1.0000
     1.0000   1.0000   1.0000   1.0000   1.0000   1.0000   1.0000   1.0000
     1.0000   1.0000   1.0000   1.0000   1.0000   1.0000   1.0000   1.0000
     1.0000   1.0000   1.0000   1.0000   1.0000   1.0000   1.0000   1.0000
     1.0000   1.0000   1.0000   1.0000   1.0000   1.0000   1.0000   1.0000
     1.0000   1.0000   1.0000   1.0000   1.0000   1.0000   1.0000   1.0000
     0.0000   0.0000   0.0000   0.0000   0.0000   0.0000   0.0000   0.0000
     0.0000   0.0000

          k = 0.0000 0.2351 0.6895 ( 35919 PWs)   bands (ev):

   -84.8976 -84.8508 -84.7418 -84.7251 -50.9947 -50.9865 -50.9627 -50.9337
   -50.9089 -50.8771 -50.8173 -50.7477 -50.6766 -50.6591 -50.5664 -50.5372
   -44.6878 -16.8152 -16.7024 -16.6848 -16.0928 -15.9564 -15.8578 -15.7597
   -13.9057 -13.8087 -13.6466 -13.5956 -13.5066 -13.4794 -13.4245 -13.3729
   -13.3455 -13.2681 -13.2006 -13.0956  -3.9519  -3.6783  -3.4321  -3.1752
    -2.0879  -1.9222  -1.6445  -1.5535  -1.3751  -1.2340  -1.1694  -1.0481
    -0.9334  -0.8957  -0.8659  -0.6957  -0.0986   0.0586   0.3035   0.4334
     0.4775   0.5727   0.6257   0.7572   0.9042   0.9391   1.0215   1.1283
     1.2430   1.3426   1.3967   1.5250   1.6769   1.7784   1.8153   1.9513
     2.0131   2.1070   2.2322   2.2820   2.4361   2.4913   2.5993   2.6245
     2.7418   2.7590   2.8974   2.9151   3.0620   3.2692   3.3693   3.4476
     3.5239   3.6152   3.6829   3.8599   3.9409   3.9956   4.0710   4.1831
     4.2163   4.2647   4.4123   4.5818   4.7494   4.7916   5.0693   5.2178
    10.5218  11.6622  11.8904  12.3002  12.5043  13.0457  13.2661  13.3584
    13.4743  13.6739

     occupation numbers 
     1.0000   1.0000   1.0000   1.0000   1.0000   1.0000   1.0000   1.0000
     1.0000   1.0000   1.0000   1.0000   1.0000   1.0000   1.0000   1.0000
     1.0000   1.0000   1.0000   1.0000   1.0000   1.0000   1.0000   1.0000
     1.0000   1.0000   1.0000   1.0000   1.0000   1.0000   1.0000   1.0000
     1.0000   1.0000   1.0000   1.0000   1.0000   1.0000   1.0000   1.0000
     1.0000   1.0000   1.0000   1.0000   1.0000   1.0000   1.0000   1.0000
     1.0000   1.0000   1.0000   1.0000   1.0000   1.0000   1.0000   1.0000
     1.0000   1.0000   1.0000   1.0000   1.0000   1.0000   1.0000   1.0000
     1.0000   1.0000   1.0000   1.0000   1.0000   1.0000   1.0000   1.0000
     1.0000   1.0000   1.0000   1.0000   1.0000   1.0000   1.0000   1.0000
     1.0000   1.0000   1.0000   1.0000   1.0000   1.0000   1.0000   1.0000
     1.0000   1.0000   1.0000   1.0000   1.0000   1.0000   1.0000   1.0000
     1.0000   1.0000   1.0000   1.0000   1.0000   1.0000   1.0000   1.0000
     0.0000   0.0000   0.0000   0.0000   0.0000   0.0000   0.0000   0.0000
     0.0000   0.0000

          k = 0.0000 0.2351 0.9194 ( 35896 PWs)   bands (ev):

   -84.8976 -84.8508 -84.7418 -84.7251 -50.9947 -50.9865 -50.9627 -50.9337
   -50.9089 -50.8771 -50.8173 -50.7477 -50.6766 -50.6591 -50.5664 -50.5372
   -44.6878 -16.8122 -16.7028 -16.6898 -16.0544 -15.9514 -15.8317 -15.7741
   -13.9211 -13.8351 -13.6428 -13.6026 -13.5127 -13.4689 -13.4388 -13.3920
   -13.3542 -13.2702 -13.2120 -13.0983  -3.8673  -3.6386  -3.4341  -3.2091
    -2.0710  -1.8907  -1.5910  -1.5307  -1.3847  -1.2581  -1.1776  -1.0681
    -0.9023  -0.8627  -0.8210  -0.7486  -0.1189   0.0891   0.3117   0.4135
     0.5601   0.6102   0.7043   0.7907   0.9161   1.0043   1.0703   1.1175
     1.2848   1.3055   1.3589   1.4604   1.5822   1.6609   1.7787   1.9149
     2.0023   2.1019   2.1350   2.2253   2.3917   2.4920   2.5584   2.6543
     2.6992   2.7842   2.8148   2.8470   3.0734   3.3170   3.4175   3.4715
     3.5520   3.5813   3.7188   3.8672   3.9269   3.9968   4.0620   4.1681
     4.2078   4.2634   4.4045   4.6107   4.7133   4.8149   5.1077   5.1979
    11.0237  11.7197  11.8667  12.1935  12.4219  13.1481  13.2629  13.3149
    13.4615  13.6112

     occupation numbers 
     1.0000   1.0000   1.0000   1.0000   1.0000   1.0000   1.0000   1.0000
     1.0000   1.0000   1.0000   1.0000   1.0000   1.0000   1.0000   1.0000
     1.0000   1.0000   1.0000   1.0000   1.0000   1.0000   1.0000   1.0000
     1.0000   1.0000   1.0000   1.0000   1.0000   1.0000   1.0000   1.0000
     1.0000   1.0000   1.0000   1.0000   1.0000   1.0000   1.0000   1.0000
     1.0000   1.0000   1.0000   1.0000   1.0000   1.0000   1.0000   1.0000
     1.0000   1.0000   1.0000   1.0000   1.0000   1.0000   1.0000   1.0000
     1.0000   1.0000   1.0000   1.0000   1.0000   1.0000   1.0000   1.0000
     1.0000   1.0000   1.0000   1.0000   1.0000   1.0000   1.0000   1.0000
     1.0000   1.0000   1.0000   1.0000   1.0000   1.0000   1.0000   1.0000
     1.0000   1.0000   1.0000   1.0000   1.0000   1.0000   1.0000   1.0000
     1.0000   1.0000   1.0000   1.0000   1.0000   1.0000   1.0000   1.0000
     1.0000   1.0000   1.0000   1.0000   1.0000   1.0000   1.0000   1.0000
     0.0000   0.0000   0.0000   0.0000   0.0000   0.0000   0.0000   0.0000
     0.0000   0.0000

          k = 0.0000 0.4701 0.0000 ( 35853 PWs)   bands (ev):

   -84.8976 -84.8508 -84.7418 -84.7251 -50.9947 -50.9865 -50.9627 -50.9337
   -50.9089 -50.8771 -50.8173 -50.7477 -50.6766 -50.6591 -50.5664 -50.5372
   -44.6878 -16.8376 -16.7046 -16.6665 -16.1369 -15.9849 -15.9051 -15.7868
   -13.8944 -13.7277 -13.6532 -13.5895 -13.5293 -13.4237 -13.3791 -13.3506
   -13.3106 -13.2525 -13.1550 -13.0973  -4.0704  -3.6666  -3.4802  -3.2511
    -2.0849  -1.9013  -1.7137  -1.6175  -1.4190  -1.2705  -1.1368  -1.0605
    -0.9890  -0.9091  -0.8191  -0.6344  -0.1662  -0.0535   0.1808   0.2469
     0.4258   0.4944   0.5186   0.7018   0.8134   0.9362   1.1392   1.2149
     1.3403   1.3877   1.4859   1.5705   1.7184   1.8068   1.8649   1.9690
     2.0507   2.1211   2.2567   2.2832   2.3485   2.5073   2.5769   2.7445
     2.7905   2.9001   2.9376   3.0537   3.1408   3.2100   3.3951   3.4875
     3.5154   3.5964   3.7181   3.8265   3.8999   4.0633   4.1095   4.1537
[...]
     atom    4 type  1   force =    -0.04815136    0.11019109    0.18693748
     atom    5 type  1   force =     0.01137788    0.10533809   -0.14484097
     atom    6 type  4   force =     0.01733206    0.03526913    0.02327105
     atom    7 type  4   force =    -0.06287309    0.01813348   -0.05525832
     atom    8 type  4   force =    -0.01900336   -0.05749154   -0.03094281
     atom    9 type  4   force =     0.06861348   -0.02833031    0.05806514
     atom   10 type  3   force =    -0.54381689   -0.26297879   -1.06902856
     atom   11 type  3   force =    -0.03736017    0.22258217   -1.45095502
     atom   12 type  3   force =     0.58460985    0.20120761    1.04765006
     atom   13 type  3   force =     0.05512003   -0.22639435    1.45199599
     atom   14 type  3   force =     1.39321504   -0.23036727   -0.60651518
     atom   15 type  3   force =    -1.28509784    0.52571302   -0.12451946
     atom   16 type  3   force =    -1.37123157    0.23183473    0.65998056
     atom   17 type  3   force =     1.25811307   -0.42408519    0.05042043
     atom   18 type  3   force =    -0.08756451   -1.32543342    0.84423589
     atom   19 type  3   force =     0.60895329    0.71534519    0.92474324
     atom   20 type  3   force =    -0.01230056   -1.65712798   -0.95660115
     atom   21 type  3   force =    -0.11308205    0.98874476   -0.59568700
     atom   22 type  3   force =     0.10269598    1.35743561   -0.76482272
     atom   23 type  3   force =    -0.61562080   -0.69059940   -0.94699040
     atom   24 type  3   force =    -0.02963340    1.55862418    0.97524803
     atom   25 type  3   force =     0.07791767   -1.05661573    0.59208807
     The ionic contribution  to forces
     atom    1 type  2   force =     1.47029238   -3.24786513   -1.88694981
     atom    2 type  1   force =     8.31511569    5.51277600   -2.61263569
     atom    3 type  1   force =     5.88969368   -9.26188071   -2.02177274
     atom    4 type  1   force =   -11.10725844   -4.45974247    2.17202326
     atom    5 type  1   force =    -4.57613819   10.47825950    3.32092319
     atom    6 type  4   force =    -1.17584561    2.49070647   -1.55123057
     atom    7 type  4   force =     3.05846036   -0.93018765    1.29593239
     atom    8 type  4   force =     1.27208763   -2.30330849    1.98219342
     atom    9 type  4   force =    -3.04699174    0.80764886   -1.18124371
     atom   10 type  3   force =    -0.89701947    7.57610978    0.21156151
     atom   11 type  3   force =     7.49327671   -3.98500722    2.11231719
     atom   12 type  3   force =    -1.11225644   -5.79544606    1.00992120
     atom   13 type  3   force =    -7.43359197    4.11777152   -2.17548570
     atom   14 type  3   force =     0.13793397    1.42250389    7.57568887
     atom   15 type  3   force =     0.38799753   -5.60129054    5.30575465
     atom   16 type  3   force =    -0.43960911   -1.51569575   -8.04918073
     atom   17 type  3   force =     0.35826211    3.99479810   -2.84427354
     atom   18 type  3   force =    -4.85266932    7.56022560    0.03632453
     atom   19 type  3   force =     2.50938262   -1.77145126   -3.65144563
     atom   20 type  3   force =     4.52638320    6.70385759    8.60928837
     atom   21 type  3   force =    -8.91808852   -0.25204176   -0.09869260
     atom   22 type  3   force =     4.95195907   -8.68985242   -2.82756370
     atom   23 type  3   force =    -2.75366016    0.61909599    3.93841023
     atom   24 type  3   force =    -3.25085577   -4.61114722   -9.05923128
     atom   25 type  3   force =     9.19313978    1.14116337    0.38936689
     The local contribution  to forces
     atom    1 type  2   force =    -1.53278409    3.27023705    1.80972368
     atom    2 type  1   force =    -8.38724321   -5.41033908    2.77548601
     atom    3 type  1   force =    -5.82540680    9.39695434    1.94265630
     atom    4 type  1   force =    11.15027095    4.35175816   -2.34908099
     atom    5 type  1   force =     4.56326438  -10.58307568   -3.17411577
     atom    6 type  4   force =     1.18393627   -2.53351102    1.52380151
     atom    7 type  4   force =    -3.03252260    0.91645690   -1.24075914
     atom    8 type  4   force =    -1.27638818    2.36314606   -1.94359261
     atom    9 type  4   force =     3.01581848   -0.78532538    1.12692170
     atom   10 type  3   force =     1.44355080   -7.31845844    0.85202646
     atom   11 type  3   force =    -7.45715788    3.76311781   -0.67052350
     atom   12 type  3   force =     0.52587085    5.59402134   -2.04867305
     atom   13 type  3   force =     7.38091362   -3.89288500    0.73469667
     atom   14 type  3   force =    -1.55797698   -1.18996401   -6.96972394
     atom   15 type  3   force =     0.92206731    5.06289006   -5.18897829
     atom   16 type  3   force =     1.83778793    1.28119612    7.39012691
     atom   17 type  3   force =    -1.64147378   -3.56100034    2.80536571
     atom   18 type  3   force =     4.93759703   -6.24335127   -0.87078715
     atom   19 type  3   force =    -3.11879091    1.06010884    2.73289168
     atom   20 type  3   force =    -4.50853100   -5.06634616   -7.65647261
     atom   21 type  3   force =     9.03132452   -0.72878170    0.69010793
     atom   22 type  3   force =    -5.05191171    7.33957911    3.58981586
     atom   23 type  3   force =     3.36997573    0.06735891   -2.99510492
     atom   24 type  3   force =     3.27390454    3.06718650    8.09201744
     atom   25 type  3   force =    -9.27009848   -0.09307212   -0.97333191
     The core correction contribution to forces
     atom    1 type  2   force =     0.00000000    0.00000000    0.00000000
     atom    2 type  1   force =    -0.00258662    0.00064325    0.00110520
     atom    3 type  1   force =     0.00118203   -0.00034931    0.00086137
     atom    4 type  1   force =     0.00241560   -0.00100758   -0.00130157
     atom    5 type  1   force =    -0.00057564    0.00064079   -0.00046838
     atom    6 type  4   force =    -0.00091266   -0.00149255   -0.00058879
     atom    7 type  4   force =     0.00496278   -0.00113668    0.00292297
     atom    8 type  4   force =     0.00093278    0.00305736    0.00112146
     atom    9 type  4   force =    -0.00540477    0.00207732   -0.00325577
     atom   10 type  3   force =     0.00436543    0.00228825    0.00914416
     atom   11 type  3   force =     0.00109941   -0.00224337    0.01252893
     atom   12 type  3   force =    -0.00468294   -0.00173728   -0.00904264
     atom   13 type  3   force =    -0.00126366    0.00228349   -0.01260803
     atom   14 type  3   force =    -0.01124167    0.00203537    0.00581305
     atom   15 type  3   force =     0.01025588   -0.00468912    0.00163753
     atom   16 type  3   force =     0.01105481   -0.00202912   -0.00627381
     atom   17 type  3   force =    -0.00998819    0.00379147   -0.00108707
     atom   18 type  3   force =     0.00016521    0.01195728   -0.00722526
     atom   19 type  3   force =    -0.00519423   -0.00586724   -0.00826654
     atom   20 type  3   force =     0.00027398    0.01453243    0.00889971
     atom   21 type  3   force =     0.00083847   -0.00854299    0.00538992
     atom   22 type  3   force =    -0.00032473   -0.01227720    0.00643498
     atom   23 type  3   force =     0.00527047    0.00563791    0.00848000
     atom   24 type  3   force =     0.00014667   -0.01358374   -0.00910052
     atom   25 type  3   force =    -0.00049416    0.00912144   -0.00537094
     The Hubbard contrib.    to forces
     atom    1 type  2   force =     0.00000000    0.00000000    0.00000000
     atom    2 type  1   force =     0.00000000    0.00000000    0.00000000
     atom    3 type  1   force =     0.00000000    0.00000000    0.00000000
     atom    4 type  1   force =     0.00000000    0.00000000    0.00000000
     atom    5 type  1   force =     0.00000000    0.00000000    0.00000000
     atom    6 type  4   force =     0.00000000    0.00000000    0.00000000
     atom    7 type  4   force =     0.00000000    0.00000000    0.00000000
     atom    8 type  4   force =     0.00000000    0.00000000    0.00000000
     atom    9 type  4   force =     0.00000000    0.00000000    0.00000000
     atom   10 type  3   force =     0.00000000    0.00000000    0.00000000
     atom   11 type  3   force =     0.00000000    0.00000000    0.00000000
     atom   12 type  3   force =     0.00000000    0.00000000    0.00000000
     atom   13 type  3   force =     0.00000000    0.00000000    0.00000000
     atom   14 type  3   force =     0.00000000    0.00000000    0.00000000
     atom   15 type  3   force =     0.00000000    0.00000000    0.00000000
     atom   16 type  3   force =     0.00000000    0.00000000    0.00000000
     atom   17 type  3   force =     0.00000000    0.00000000    0.00000000
     atom   18 type  3   force =     0.00000000    0.00000000    0.00000000
     atom   19 type  3   force =     0.00000000    0.00000000    0.00000000
     atom   20 type  3   force =     0.00000000    0.00000000    0.00000000
     atom   21 type  3   force =     0.00000000    0.00000000    0.00000000
     atom   22 type  3   force =     0.00000000    0.00000000    0.00000000
     atom   23 type  3   force =     0.00000000    0.00000000    0.00000000
     atom   24 type  3   force =     0.00000000    0.00000000    0.00000000
     atom   25 type  3   force =     0.00000000    0.00000000    0.00000000
     The SCF correction term to forces
     atom    1 type  2   force =    -0.00000374   -0.00000198    0.00000023
     atom    2 type  1   force =     0.00000383    0.00000155    0.00000128
     atom    3 type  1   force =     0.00000127    0.00000042    0.00000092
     atom    4 type  1   force =     0.00000099    0.00000013    0.00000045
     atom    5 type  1   force =    -0.00000143    0.00000056    0.00000078
     atom    6 type  4   force =    -0.00000221    0.00000089   -0.00000007
     atom    7 type  4   force =     0.00000161   -0.00000021   -0.00000022
     atom    8 type  4   force =    -0.00000183    0.00000101   -0.00000065
     atom    9 type  4   force =     0.00000141   -0.00000036    0.00000050
     atom   10 type  3   force =    -0.00000176    0.00000166   -0.00000041
     atom   11 type  3   force =     0.00000306   -0.00000069   -0.00000166
     atom   12 type  3   force =    -0.00000055    0.00000269    0.00000112
     atom   13 type  3   force =     0.00000296   -0.00000099   -0.00000208
     atom   14 type  3   force =     0.00000303   -0.00000024    0.00000030
     atom   15 type  3   force =    -0.00000388   -0.00000035    0.00000059
     atom   16 type  3   force =    -0.00000008    0.00000015   -0.00000074
     atom   17 type  3   force =    -0.00000456   -0.00000009    0.00000135
     atom   18 type  3   force =    -0.00000226    0.00000015    0.00000074
     atom   19 type  3   force =     0.00000194   -0.00000004    0.00000084
     atom   20 type  3   force =    -0.00000316    0.00000160   -0.00000230
     atom   21 type  3   force =     0.00000183    0.00000383    0.00000209
     atom   22 type  3   force =     0.00000035   -0.00000060   -0.00000098
     atom   23 type  3   force =     0.00000129   -0.00000420    0.00000144
     atom   24 type  3   force =    -0.00000280    0.00000103   -0.00000122
     atom   25 type  3   force =     0.00000303   -0.00000019    0.00000116

     Total force =     0.110570     Total SCF correction =     0.000016


     Computing stress (Cartesian axis) and pressure


     negative rho (up, down):  0.000E+00 8.991E-04
          total   stress  (Ry/bohr**3)                   (kbar)     P=       42.21
   0.00020221   0.00003971  -0.00003108           29.75        5.84       -4.57
   0.00003971   0.00034378  -0.00004501            5.84       50.57       -6.62
  -0.00003108  -0.00004501   0.00031475           -4.57       -6.62       46.30

     kinetic stress (kbar)  27027.51     88.90    -44.20
                               88.90  27124.59      0.61
                              -44.20      0.61  27154.96

     local   stress (kbar)  -8955.18   4095.86  -8344.07
                             4095.86 -13596.33   -651.89
                            -8344.07   -651.89  -5472.10

     nonloc. stress (kbar)  -6914.34      5.31     -4.18
                                5.31  -6885.65    -11.13
                               -4.18    -11.13  -6898.83

     hartree stress (kbar)  14926.67  -1516.60   3530.99
                            -1516.60  17457.40    329.13
                             3530.99    329.13  13937.39

     exc-cor stress (kbar)  -2857.80     -3.84      3.42
                               -3.84  -2862.07     -0.59
                                3.42     -0.59  -2861.91

     corecor stress (kbar)  -3169.33      0.55     -0.50
                                0.55  -3168.96      1.07
                               -0.50      1.07  -3169.08

     ewald   stress (kbar) -20027.78  -2664.34   4853.97
                            -2664.34 -18018.42    326.17
                             4853.97    326.17 -22644.13

     hubbard stress (kbar)      0.00      0.00      0.00
                                0.00      0.00      0.00
                                0.00      0.00      0.00

     DFT-D   stress (kbar)      0.00      0.00      0.00
                                0.00      0.00      0.00
                                0.00      0.00      0.00

     XDM     stress (kbar)      0.00      0.00      0.00
                                0.00      0.00      0.00
                                0.00      0.00      0.00

     dft-nl  stress (kbar)      0.00      0.00      0.00
                                0.00      0.00      0.00
                                0.00      0.00      0.00

     TS-vdW  stress (kbar)      0.00      0.00      0.00
                                0.00      0.00      0.00
                                0.00      0.00      0.00



     init_run     :   1177.60s CPU   1333.67s WALL (       1 calls)
     electrons    :  85340.15s CPU  98292.07s WALL (       1 calls)
     forces       :    144.98s CPU    167.52s WALL (       1 calls)
     stress       :    670.22s CPU    772.85s WALL (       1 calls)

     Called by init_run:
     wfcinit      :   1161.22s CPU   1314.77s WALL (       1 calls)
     wfcinit:atom :      0.69s CPU      0.74s WALL (     316 calls)
     wfcinit:wfcr :   1155.93s CPU   1308.74s WALL (     316 calls)
     potinit      :      6.54s CPU      7.83s WALL (       1 calls)
     hinit0       :      5.51s CPU      6.14s WALL (       1 calls)

     Called by electrons:
     c_bands      :  70907.19s CPU  81723.54s WALL (      32 calls)
     sum_band     :  14188.67s CPU  16286.10s WALL (      32 calls)
     v_of_rho     :     82.21s CPU     95.45s WALL (      33 calls)
     v_h          :      7.63s CPU      9.08s WALL (      33 calls)
     v_xc         :     79.42s CPU     91.85s WALL (      35 calls)
     newd         :     68.54s CPU     78.02s WALL (      33 calls)
     PAW_pot      :     17.84s CPU     20.96s WALL (      33 calls)
     mix_rho      :     63.59s CPU     74.09s WALL (      32 calls)

     Called by c_bands:
     init_us_2    :     68.38s CPU     75.01s WALL (   21172 calls)
     cegterg      :  70143.33s CPU  80817.43s WALL (   10112 calls)

     Called by sum_band:
     sum_band:wei :      0.52s CPU      0.62s WALL (      32 calls)
     sum_band:loo :  14075.22s CPU  16153.03s WALL (      32 calls)
     sum_band:buf :     17.75s CPU     18.62s WALL (   10112 calls)
     sum_band:ini :     26.07s CPU     27.32s WALL (   10112 calls)
     sum_band:cal :   1001.56s CPU   1156.25s WALL (   10112 calls)
     sum_band:bec :      2.90s CPU      2.94s WALL (   10112 calls)
     addusdens    :     94.51s CPU    112.00s WALL (      32 calls)
     addusd:skk   :      0.71s CPU      0.86s WALL (      96 calls)
     addusd:dgemm :      8.35s CPU     13.03s WALL (     192 calls)
     addusd:qvan2 :     84.61s CPU     96.93s WALL (     192 calls)

     Called by *egterg:
     cdiaghg      :   1233.90s CPU   1449.98s WALL (   38577 calls)
     cegterg:over :   4034.04s CPU   4640.86s WALL (   28465 calls)
     cegterg:upda :    182.13s CPU    202.90s WALL (   28465 calls)
     cegterg:last :    370.41s CPU    419.73s WALL (   17263 calls)
     h_psi        :  61826.44s CPU  71201.65s WALL (   38893 calls)
     s_psi        :    382.91s CPU    446.95s WALL (   38893 calls)
     g_psi        :     20.95s CPU     25.64s WALL (   28465 calls)

     Called by h_psi:
     h_psi:calbec :   3138.62s CPU   3640.57s WALL (   38893 calls)
     vloc_psi     :  58211.19s CPU  67008.42s WALL (   38893 calls)
     add_vuspsi   :    430.37s CPU    499.83s WALL (   38893 calls)

     General routines
     calbec       :   4375.76s CPU   5063.53s WALL (   50585 calls)
     fft          :    127.31s CPU    147.11s WALL (     863 calls)
     ffts         :      3.04s CPU      3.70s WALL (     130 calls)
     fftw         :  70518.72s CPU  81225.87s WALL ( 6330386 calls)
     interpolate  :     11.23s CPU     13.16s WALL (      66 calls)

     Parallel routines
     fft_scatt_xy :    287.66s CPU    292.59s WALL ( 6331379 calls)
     fft_scatt_yz :  69313.65s CPU  80018.97s WALL ( 6331379 calls)

     PAW routines
     PAW_pot      :     17.84s CPU     20.96s WALL (      33 calls)

     PWSCF        :   1d 0h15m CPU   1d 3h56m WALL


   This run was terminated on:   2: 6:34  20Jan2023            

=------------------------------------------------------------------------------=
   JOB DONE.
=------------------------------------------------------------------------------=
Note: The following floating-point exceptions are signalling: IEEE_DENORMAL
Note: The following floating-point exceptions are signalling: IEEE_DENORMAL
Note: The following floating-point exceptions are signalling: IEEE_INVALID_FLAG IEEE_DENORMAL
Note: The following floating-point exceptions are signalling: IEEE_DENORMAL
Note: The following floating-point exceptions are signalling: IEEE_DENORMAL
Note: The following floating-point exceptions are signalling: IEEE_DENORMAL
Note: The following floating-point exceptions are signalling: IEEE_INVALID_FLAG IEEE_DENORMAL
Note: The following floating-point exceptions are signalling: IEEE_DENORMAL
Note: The following floating-point exceptions are signalling: IEEE_DENORMAL
Note: The following floating-point exceptions are signalling: IEEE_DENORMAL
Note: The following floating-point exceptions are signalling: IEEE_DENORMAL
Note: The following floating-point exceptions are signalling: IEEE_DENORMAL
Note: The following floating-point exceptions are signalling: IEEE_DENORMAL
Note: The following floating-point exceptions are signalling: IEEE_DENORMAL
Note: The following floating-point exceptions are signalling: IEEE_DENORMAL
Note: The following floating-point exceptions are signalling: IEEE_UNDERFLOW_FLAG IEEE_DENORMAL
Note: The following floating-point exceptions are signalling: IEEE_DENORMAL
Note: The following floating-point exceptions are signalling: IEEE_DENORMAL
Note: The following floating-point exceptions are signalling: IEEE_DENORMAL
Note: The following floating-point exceptions are signalling: IEEE_DENORMAL
Note: The following floating-point exceptions are signalling: IEEE_DENORMAL
Note: The following floating-point exceptions are signalling: IEEE_DENORMAL
Note: The following floating-point exceptions are signalling: IEEE_DENORMAL
Note: The following floating-point exceptions are signalling: IEEE_DENORMAL
Note: The following floating-point exceptions are signalling: IEEE_DENORMAL
Note: The following floating-point exceptions are signalling: IEEE_DENORMAL
Note: The following floating-point exceptions are signalling: IEEE_DENORMAL
Note: The following floating-point exceptions are signalling: IEEE_DENORMAL
Note: The following floating-point exceptions are signalling: IEEE_DENORMAL
Note: The following floating-point exceptions are signalling: IEEE_DENORMAL
