# /home/jsp1/perl4dpgen_20221025/initial/BN_mp-1599/BN_mp-1599.in

8 atoms
3 atom types

0.000000000000       6.673744500000  xlo xhi
0.000000000000       2.467095258098  ylo yhi
0.000000000000       4.398323004617  zlo zhi
6.200992391444       0.039124168070       0.007497089093  xy xz yz

Masses

1 10.81  # B
2 15.999  # O
3 14.007  # N

Atoms  # atomic

1 1 0.001114613184 0.000213585483 0.005172427853
2 1 2.597479683533 0.497736758761 2.517151458896
3 1 11.170576575786 2.140539005396 2.724431227135
4 1 6.862951074002 1.315099034178 2.206717821230
5 3 12.652830382808 2.424572874937 2.889231991795
6 3 6.522748529312 1.249908413828 0.689815386752
7 3 8.350363861920 1.600121482935 2.446356051814
8 3 4.044552533606 0.775029149017 2.669566545975
