
     Program PWSCF v.6.7MaX starts on 28Sep2022 at 21:10:57 

     This program is part of the open-source Quantum ESPRESSO suite
     for quantum simulation of materials; please cite
         "P. Giannozzi et al., J. Phys.:Condens. Matter 21 395502 (2009);
         "P. Giannozzi et al., J. Phys.:Condens. Matter 29 465901 (2017);
          URL http://www.quantum-espresso.org", 
     in publications or presentations arising from this work. More details at
     http://www.quantum-espresso.org/quote

     Parallel version (MPI), running on    16 processors

     MPI processes distributed on     1 nodes
     R & G space division:  proc/nbgrp/npool/nimage =      16
     Reading input from scale_1da-04.in

     Current dimensions of program PWSCF are:
     Max number of different atomic species (ntypx) = 10
     Max number of k-points (npk) =  40000
     Max angular momentum in pseudopotentials (lmaxx) =  3
     Message from routine read_pp_mesh:
     mesh size missing, using the one in header

     Subspace diagonalization in iterative solution of the eigenvalue problem:
     a serial algorithm will be used


     Parallelization info
     --------------------
     sticks:   dense  smooth     PW     G-vecs:    dense   smooth      PW
     Min         133      96     28                 4917     3051     485
     Max         134      97     29                 4919     3053     487
     Sum        2133    1539    457                78687    48821    7771



     bravais-lattice index     =            0
     lattice parameter (alat)  =      13.0318  a.u.
     unit-cell volume          =     504.9797 (a.u.)^3
     number of atoms/cell      =            8
     number of atomic types    =            2
     number of electrons       =        32.00
     number of Kohn-Sham states=           20
     kinetic-energy cutoff     =      80.0000  Ry
     charge density cutoff     =     440.0000  Ry
     scf convergence threshold =      2.0E-10
     mixing beta               =       0.4000
     number of iterations used =            8  plain     mixing
     Exchange-correlation= PBE
                           (   1   4   3   4   0   0   0)

     celldm(1)=  13.031847  celldm(2)=   0.000000  celldm(3)=   0.000000
     celldm(4)=   0.000000  celldm(5)=   0.000000  celldm(6)=   0.000000

     crystal axes: (cart. coord. in units of alat)
               a(1) = (   1.000000   0.000000   0.000000 )  
               a(2) = (  -0.100811   0.357747   0.000000 )  
               a(3) = (   0.005673   0.001087   0.637793 )  

     reciprocal axes: (cart. coord. in units 2 pi/alat)
               b(1) = (  1.000000  0.281793 -0.009375 )  
               b(2) = (  0.000000  2.795270 -0.004764 )  
               b(3) = (  0.000000 -0.000000  1.567907 )  


     PseudoPot. # 1 for B  read from file:
     /opt/QEpot/SSSP_precision_pseudos/B_pbe_v1.01.uspp.F.UPF
     MD5 check sum: d081ebb89d0c768e112975f650467a00
     Pseudo is Ultrasoft + core correction, Zval =  3.0
     Generated by new atomic code, or converted to UPF format
     Using radial grid of  781 points,  4 beta functions with: 
                l(1) =   0
                l(2) =   0
                l(3) =   1
                l(4) =   1
     Q(r) pseudized with  8 coefficients,  rinner =    1.100   1.100   1.100


     PseudoPot. # 2 for N  read from file:
     /opt/QEpot/SSSP_precision_pseudos/N.oncvpsp.upf
     MD5 check sum: 563d65bfb082928f0c9eb97172f6c357
     Pseudo is Norm-conserving + core correction, Zval =  5.0
     Generated using ONCVPSP code by D. R. Hamann
     Using radial grid of 1058 points,  4 beta functions with: 
                l(1) =   0
                l(2) =   0
                l(3) =   1
                l(4) =   1

     atomic species   valence    mass     pseudopotential
        B              3.00    10.81000     B ( 1.00)
        N              5.00    14.00700     N ( 1.00)

     No symmetry found


                                    s                        frac. trans.

      isym =  1     identity                                     

 cryst.   s( 1) = (     1          0          0      )
                  (     0          1          0      )
                  (     0          0          1      )

 cart.    s( 1) = (  1.0000000  0.0000000  0.0000000 )
                  (  0.0000000  1.0000000  0.0000000 )
                  (  0.0000000  0.0000000  1.0000000 )


   Cartesian axes

     site n.     atom                  positions (alat units)
         1           B   tau(   1) = (   1.0011821   0.0006704   0.0020930  )
         2           B   tau(   2) = (   0.3841334   0.0723917   0.3655469  )
         3           B   tau(   3) = (   1.6487605   0.3110335   0.3964078  )
         4           B   tau(   4) = (   1.0133522   0.1909154   0.3205315  )
         5           N   tau(   5) = (   1.8674083   0.3522205   0.4203053  )
         6           N   tau(   6) = (   0.9631917   0.1818854   0.1013718  )
         7           N   tau(   7) = (   1.2327491   0.2326689   0.3560846  )
         8           N   tau(   8) = (   0.5975816   0.1130243   0.3884520  )

   Crystallographic axes

     site n.     atom                  positions (cryst. coord.)
         1           B   tau(   1) = (  1.0013514  0.0018639  0.0032816  )
         2           B   tau(   2) = (  0.4011060  0.2006128  0.5731437  )
         3           B   tau(   3) = (  1.7326914  0.8675339  0.6215306  )
         4           B   tau(   4) = (  1.0641460  0.5321328  0.5025637  )
         5           N   tau(   5) = (  1.9627214  0.9825489  0.6589996  )
         6           N   tau(   6) = (  1.0134954  0.5079359  0.1589416  )
         7           N   tau(   7) = (  1.2949754  0.6486759  0.5583076  )
         8           N   tau(   8) = (  0.6257894  0.3140829  0.6090566  )

     number of k points=    91  Marzari-Vanderbilt smearing, width (Ry)=  0.0220
                       cart. coord. in units 2pi/alat
        k(    1) = (   0.0000000   0.0000000   0.0000000), wk =   0.0111111
        k(    2) = (   0.0000000   0.0000000   0.3919768), wk =   0.0222222
        k(    3) = (   0.0000000   0.0000000  -0.7839536), wk =   0.0111111
        k(    4) = (   0.0000000   0.5590539  -0.0009528), wk =   0.0222222
        k(    5) = (   0.0000000   0.5590539   0.3910239), wk =   0.0222222
        k(    6) = (   0.0000000   0.5590539  -0.7849064), wk =   0.0222222
        k(    7) = (   0.0000000   0.5590539  -0.3929296), wk =   0.0222222
        k(    8) = (   0.0000000   1.1181078  -0.0019057), wk =   0.0222222
        k(    9) = (   0.0000000   1.1181078   0.3900711), wk =   0.0222222
        k(   10) = (   0.0000000   1.1181078  -0.7858592), wk =   0.0222222
        k(   11) = (   0.0000000   1.1181078  -0.3938825), wk =   0.0222222
        k(   12) = (   0.1111111   0.0313103  -0.0010416), wk =   0.0222222
        k(   13) = (   0.1111111   0.0313103   0.3909351), wk =   0.0222222
        k(   14) = (   0.1111111   0.0313103  -0.7849952), wk =   0.0222222
        k(   15) = (   0.1111111   0.0313103  -0.3930184), wk =   0.0222222
        k(   16) = (   0.1111111   0.5903643  -0.0019945), wk =   0.0222222
        k(   17) = (   0.1111111   0.5903643   0.3899823), wk =   0.0222222
        k(   18) = (   0.1111111   0.5903643  -0.7859480), wk =   0.0222222
        k(   19) = (   0.1111111   0.5903643  -0.3939713), wk =   0.0222222
        k(   20) = (   0.1111111   1.1494182  -0.0029473), wk =   0.0222222
        k(   21) = (   0.1111111   1.1494182   0.3890295), wk =   0.0222222
        k(   22) = (   0.1111111   1.1494182  -0.7869009), wk =   0.0222222
        k(   23) = (   0.1111111   1.1494182  -0.3949241), wk =   0.0222222
        k(   24) = (   0.1111111  -1.0867975   0.0008640), wk =   0.0222222
        k(   25) = (   0.1111111  -1.0867975   0.3928408), wk =   0.0222222
        k(   26) = (   0.1111111  -1.0867975  -0.7830895), wk =   0.0222222
        k(   27) = (   0.1111111  -1.0867975  -0.3911127), wk =   0.0222222
        k(   28) = (   0.1111111  -0.5277436  -0.0000888), wk =   0.0222222
        k(   29) = (   0.1111111  -0.5277436   0.3918880), wk =   0.0222222
        k(   30) = (   0.1111111  -0.5277436  -0.7840424), wk =   0.0222222
        k(   31) = (   0.1111111  -0.5277436  -0.3920656), wk =   0.0222222
        k(   32) = (   0.2222222   0.0626207  -0.0020833), wk =   0.0222222
        k(   33) = (   0.2222222   0.0626207   0.3898935), wk =   0.0222222
        k(   34) = (   0.2222222   0.0626207  -0.7860368), wk =   0.0222222
        k(   35) = (   0.2222222   0.0626207  -0.3940601), wk =   0.0222222
        k(   36) = (   0.2222222   0.6216746  -0.0030361), wk =   0.0222222
        k(   37) = (   0.2222222   0.6216746   0.3889407), wk =   0.0222222
        k(   38) = (   0.2222222   0.6216746  -0.7869897), wk =   0.0222222
        k(   39) = (   0.2222222   0.6216746  -0.3950129), wk =   0.0222222
        k(   40) = (   0.2222222   1.1807285  -0.0039890), wk =   0.0222222
        k(   41) = (   0.2222222   1.1807285   0.3879878), wk =   0.0222222
        k(   42) = (   0.2222222   1.1807285  -0.7879425), wk =   0.0222222
        k(   43) = (   0.2222222   1.1807285  -0.3959657), wk =   0.0222222
        k(   44) = (   0.2222222  -1.0554871  -0.0001776), wk =   0.0222222
        k(   45) = (   0.2222222  -1.0554871   0.3917992), wk =   0.0222222
        k(   46) = (   0.2222222  -1.0554871  -0.7841311), wk =   0.0222222
        k(   47) = (   0.2222222  -1.0554871  -0.3921544), wk =   0.0222222
        k(   48) = (   0.2222222  -0.4964332  -0.0011304), wk =   0.0222222
        k(   49) = (   0.2222222  -0.4964332   0.3908463), wk =   0.0222222
        k(   50) = (   0.2222222  -0.4964332  -0.7850840), wk =   0.0222222
        k(   51) = (   0.2222222  -0.4964332  -0.3931072), wk =   0.0222222
        k(   52) = (   0.3333333   0.0939310  -0.0031249), wk =   0.0222222
        k(   53) = (   0.3333333   0.0939310   0.3888519), wk =   0.0222222
        k(   54) = (   0.3333333   0.0939310  -0.7870785), wk =   0.0222222
        k(   55) = (   0.3333333   0.0939310  -0.3951017), wk =   0.0222222
        k(   56) = (   0.3333333   0.6529850  -0.0040778), wk =   0.0222222
        k(   57) = (   0.3333333   0.6529850   0.3878990), wk =   0.0222222
        k(   58) = (   0.3333333   0.6529850  -0.7880313), wk =   0.0222222
        k(   59) = (   0.3333333   0.6529850  -0.3960545), wk =   0.0222222
        k(   60) = (   0.3333333   1.2120389  -0.0050306), wk =   0.0222222
        k(   61) = (   0.3333333   1.2120389   0.3869462), wk =   0.0222222
        k(   62) = (   0.3333333   1.2120389  -0.7889842), wk =   0.0222222
        k(   63) = (   0.3333333   1.2120389  -0.3970074), wk =   0.0222222
        k(   64) = (   0.3333333  -1.0241768  -0.0012192), wk =   0.0222222
        k(   65) = (   0.3333333  -1.0241768   0.3907576), wk =   0.0222222
        k(   66) = (   0.3333333  -1.0241768  -0.7851728), wk =   0.0222222
        k(   67) = (   0.3333333  -1.0241768  -0.3931960), wk =   0.0222222
        k(   68) = (   0.3333333  -0.4651229  -0.0021721), wk =   0.0222222
        k(   69) = (   0.3333333  -0.4651229   0.3898047), wk =   0.0222222
        k(   70) = (   0.3333333  -0.4651229  -0.7861256), wk =   0.0222222
        k(   71) = (   0.3333333  -0.4651229  -0.3941488), wk =   0.0222222
        k(   72) = (   0.4444444   0.1252414  -0.0041665), wk =   0.0222222
        k(   73) = (   0.4444444   0.1252414   0.3878102), wk =   0.0222222
        k(   74) = (   0.4444444   0.1252414  -0.7881201), wk =   0.0222222
        k(   75) = (   0.4444444   0.1252414  -0.3961433), wk =   0.0222222
        k(   76) = (   0.4444444   0.6842953  -0.0051194), wk =   0.0222222
        k(   77) = (   0.4444444   0.6842953   0.3868574), wk =   0.0222222
        k(   78) = (   0.4444444   0.6842953  -0.7890729), wk =   0.0222222
        k(   79) = (   0.4444444   0.6842953  -0.3970962), wk =   0.0222222
        k(   80) = (   0.4444444   1.2433492  -0.0060722), wk =   0.0222222
        k(   81) = (   0.4444444   1.2433492   0.3859046), wk =   0.0222222
        k(   82) = (   0.4444444   1.2433492  -0.7900258), wk =   0.0222222
        k(   83) = (   0.4444444   1.2433492  -0.3980490), wk =   0.0222222
        k(   84) = (   0.4444444  -0.9928664  -0.0022609), wk =   0.0222222
        k(   85) = (   0.4444444  -0.9928664   0.3897159), wk =   0.0222222
        k(   86) = (   0.4444444  -0.9928664  -0.7862144), wk =   0.0222222
        k(   87) = (   0.4444444  -0.9928664  -0.3942376), wk =   0.0222222
        k(   88) = (   0.4444444  -0.4338125  -0.0032137), wk =   0.0222222
        k(   89) = (   0.4444444  -0.4338125   0.3887631), wk =   0.0222222
        k(   90) = (   0.4444444  -0.4338125  -0.7871673), wk =   0.0222222
        k(   91) = (   0.4444444  -0.4338125  -0.3951905), wk =   0.0222222

                       cryst. coord.
        k(    1) = (   0.0000000   0.0000000   0.0000000), wk =   0.0111111
        k(    2) = (   0.0000000   0.0000000   0.2500000), wk =   0.0222222
        k(    3) = (   0.0000000   0.0000000  -0.5000000), wk =   0.0111111
        k(    4) = (   0.0000000   0.2000000   0.0000000), wk =   0.0222222
        k(    5) = (   0.0000000   0.2000000   0.2500000), wk =   0.0222222
        k(    6) = (   0.0000000   0.2000000  -0.5000000), wk =   0.0222222
        k(    7) = (   0.0000000   0.2000000  -0.2500000), wk =   0.0222222
        k(    8) = (   0.0000000   0.4000000   0.0000000), wk =   0.0222222
        k(    9) = (   0.0000000   0.4000000   0.2500000), wk =   0.0222222
        k(   10) = (   0.0000000   0.4000000  -0.5000000), wk =   0.0222222
        k(   11) = (   0.0000000   0.4000000  -0.2500000), wk =   0.0222222
        k(   12) = (   0.1111111   0.0000000   0.0000000), wk =   0.0222222
        k(   13) = (   0.1111111   0.0000000   0.2500000), wk =   0.0222222
        k(   14) = (   0.1111111   0.0000000  -0.5000000), wk =   0.0222222
        k(   15) = (   0.1111111   0.0000000  -0.2500000), wk =   0.0222222
        k(   16) = (   0.1111111   0.2000000   0.0000000), wk =   0.0222222
        k(   17) = (   0.1111111   0.2000000   0.2500000), wk =   0.0222222
        k(   18) = (   0.1111111   0.2000000  -0.5000000), wk =   0.0222222
        k(   19) = (   0.1111111   0.2000000  -0.2500000), wk =   0.0222222
        k(   20) = (   0.1111111   0.4000000   0.0000000), wk =   0.0222222
        k(   21) = (   0.1111111   0.4000000   0.2500000), wk =   0.0222222
        k(   22) = (   0.1111111   0.4000000  -0.5000000), wk =   0.0222222
        k(   23) = (   0.1111111   0.4000000  -0.2500000), wk =   0.0222222
        k(   24) = (   0.1111111  -0.4000000   0.0000000), wk =   0.0222222
        k(   25) = (   0.1111111  -0.4000000   0.2500000), wk =   0.0222222
        k(   26) = (   0.1111111  -0.4000000  -0.5000000), wk =   0.0222222
        k(   27) = (   0.1111111  -0.4000000  -0.2500000), wk =   0.0222222
        k(   28) = (   0.1111111  -0.2000000   0.0000000), wk =   0.0222222
        k(   29) = (   0.1111111  -0.2000000   0.2500000), wk =   0.0222222
        k(   30) = (   0.1111111  -0.2000000  -0.5000000), wk =   0.0222222
        k(   31) = (   0.1111111  -0.2000000  -0.2500000), wk =   0.0222222
        k(   32) = (   0.2222222   0.0000000   0.0000000), wk =   0.0222222
        k(   33) = (   0.2222222   0.0000000   0.2500000), wk =   0.0222222
        k(   34) = (   0.2222222   0.0000000  -0.5000000), wk =   0.0222222
        k(   35) = (   0.2222222   0.0000000  -0.2500000), wk =   0.0222222
        k(   36) = (   0.2222222   0.2000000   0.0000000), wk =   0.0222222
        k(   37) = (   0.2222222   0.2000000   0.2500000), wk =   0.0222222
        k(   38) = (   0.2222222   0.2000000  -0.5000000), wk =   0.0222222
        k(   39) = (   0.2222222   0.2000000  -0.2500000), wk =   0.0222222
        k(   40) = (   0.2222222   0.4000000   0.0000000), wk =   0.0222222
        k(   41) = (   0.2222222   0.4000000   0.2500000), wk =   0.0222222
        k(   42) = (   0.2222222   0.4000000  -0.5000000), wk =   0.0222222
        k(   43) = (   0.2222222   0.4000000  -0.2500000), wk =   0.0222222
        k(   44) = (   0.2222222  -0.4000000  -0.0000000), wk =   0.0222222
        k(   45) = (   0.2222222  -0.4000000   0.2500000), wk =   0.0222222
        k(   46) = (   0.2222222  -0.4000000  -0.5000000), wk =   0.0222222
        k(   47) = (   0.2222222  -0.4000000  -0.2500000), wk =   0.0222222
        k(   48) = (   0.2222222  -0.2000000   0.0000000), wk =   0.0222222
        k(   49) = (   0.2222222  -0.2000000   0.2500000), wk =   0.0222222
        k(   50) = (   0.2222222  -0.2000000  -0.5000000), wk =   0.0222222
        k(   51) = (   0.2222222  -0.2000000  -0.2500000), wk =   0.0222222
        k(   52) = (   0.3333333   0.0000000  -0.0000000), wk =   0.0222222
        k(   53) = (   0.3333333   0.0000000   0.2500000), wk =   0.0222222
        k(   54) = (   0.3333333   0.0000000  -0.5000000), wk =   0.0222222
        k(   55) = (   0.3333333   0.0000000  -0.2500000), wk =   0.0222222
        k(   56) = (   0.3333333   0.2000000  -0.0000000), wk =   0.0222222
        k(   57) = (   0.3333333   0.2000000   0.2500000), wk =   0.0222222
        k(   58) = (   0.3333333   0.2000000  -0.5000000), wk =   0.0222222
        k(   59) = (   0.3333333   0.2000000  -0.2500000), wk =   0.0222222
        k(   60) = (   0.3333333   0.4000000   0.0000000), wk =   0.0222222
        k(   61) = (   0.3333333   0.4000000   0.2500000), wk =   0.0222222
        k(   62) = (   0.3333333   0.4000000  -0.5000000), wk =   0.0222222
        k(   63) = (   0.3333333   0.4000000  -0.2500000), wk =   0.0222222
        k(   64) = (   0.3333333  -0.4000000   0.0000000), wk =   0.0222222
        k(   65) = (   0.3333333  -0.4000000   0.2500000), wk =   0.0222222
        k(   66) = (   0.3333333  -0.4000000  -0.5000000), wk =   0.0222222
        k(   67) = (   0.3333333  -0.4000000  -0.2500000), wk =   0.0222222
        k(   68) = (   0.3333333  -0.2000000  -0.0000000), wk =   0.0222222
        k(   69) = (   0.3333333  -0.2000000   0.2500000), wk =   0.0222222
        k(   70) = (   0.3333333  -0.2000000  -0.5000000), wk =   0.0222222
        k(   71) = (   0.3333333  -0.2000000  -0.2500000), wk =   0.0222222
        k(   72) = (   0.4444444   0.0000000   0.0000000), wk =   0.0222222
        k(   73) = (   0.4444444   0.0000000   0.2500000), wk =   0.0222222
        k(   74) = (   0.4444444   0.0000000  -0.5000000), wk =   0.0222222
        k(   75) = (   0.4444444   0.0000000  -0.2500000), wk =   0.0222222
        k(   76) = (   0.4444444   0.2000000   0.0000000), wk =   0.0222222
        k(   77) = (   0.4444444   0.2000000   0.2500000), wk =   0.0222222
        k(   78) = (   0.4444444   0.2000000  -0.5000000), wk =   0.0222222
        k(   79) = (   0.4444444   0.2000000  -0.2500000), wk =   0.0222222
        k(   80) = (   0.4444444   0.4000000   0.0000000), wk =   0.0222222
        k(   81) = (   0.4444444   0.4000000   0.2500000), wk =   0.0222222
        k(   82) = (   0.4444444   0.4000000  -0.5000000), wk =   0.0222222
        k(   83) = (   0.4444444   0.4000000  -0.2500000), wk =   0.0222222
        k(   84) = (   0.4444444  -0.4000000   0.0000000), wk =   0.0222222
        k(   85) = (   0.4444444  -0.4000000   0.2500000), wk =   0.0222222
        k(   86) = (   0.4444444  -0.4000000  -0.5000000), wk =   0.0222222
        k(   87) = (   0.4444444  -0.4000000  -0.2500000), wk =   0.0222222
        k(   88) = (   0.4444444  -0.2000000   0.0000000), wk =   0.0222222
        k(   89) = (   0.4444444  -0.2000000   0.2500000), wk =   0.0222222
        k(   90) = (   0.4444444  -0.2000000  -0.5000000), wk =   0.0222222
        k(   91) = (   0.4444444  -0.2000000  -0.2500000), wk =   0.0222222

     Dense  grid:    78687 G-vectors     FFT dimensions: (  90,  36,  60)

     Smooth grid:    48821 G-vectors     FFT dimensions: (  75,  27,  48)

     Dynamical RAM for                 wfc:       0.12 MB

     Dynamical RAM for     wfc (w. buffer):      10.70 MB

     Dynamical RAM for           str. fact:       0.15 MB

     Dynamical RAM for           local pot:       0.00 MB

     Dynamical RAM for          nlocal pot:       0.37 MB

     Dynamical RAM for                qrad:       0.96 MB

     Dynamical RAM for          rho,v,vnew:       0.52 MB

     Dynamical RAM for               rhoin:       0.17 MB

     Dynamical RAM for            rho*nmix:       1.20 MB

     Dynamical RAM for           G-vectors:       0.30 MB

     Dynamical RAM for          h,s,v(r/c):       0.07 MB

     Dynamical RAM for          <psi|beta>:       0.02 MB

     Dynamical RAM for                 psi:       0.23 MB

     Dynamical RAM for                hpsi:       0.23 MB

     Dynamical RAM for                spsi:       0.23 MB

     Dynamical RAM for      wfcinit/wfcrot:       0.40 MB

     Dynamical RAM for           addusdens:       3.53 MB

     Dynamical RAM for          addusforce:       4.02 MB

     Dynamical RAM for         addusstress:       3.75 MB

     Estimated static dynamical RAM per process >      15.10 MB

     Estimated max dynamical RAM per process >      19.12 MB

     Estimated total dynamical RAM >     305.91 MB

     Check: negative core charge=   -0.000010

     Initial potential from superposition of free atoms

     starting charge   31.99884, renormalised to   32.00000
     Starting wfcs are   32 randomized atomic wfcs

     total cpu time spent up to now is        1.6 secs

     Self-consistent Calculation

     iteration #  1     ecut=    80.00 Ry     beta= 0.40
     Davidson diagonalization with overlap
     ethr =  1.00E-02,  avg # of iterations =  2.6

     total cpu time spent up to now is        3.7 secs

     total energy              =    -109.42835585 Ry
     estimated scf accuracy    <       1.34372033 Ry

     iteration #  2     ecut=    80.00 Ry     beta= 0.40
     Davidson diagonalization with overlap
     ethr =  4.20E-03,  avg # of iterations =  2.0

     total cpu time spent up to now is        5.7 secs

     total energy              =    -109.62527239 Ry
     estimated scf accuracy    <       0.09788898 Ry

     iteration #  3     ecut=    80.00 Ry     beta= 0.40
     Davidson diagonalization with overlap
     ethr =  3.06E-04,  avg # of iterations =  4.4

     total cpu time spent up to now is        7.9 secs

     total energy              =    -109.63382742 Ry
     estimated scf accuracy    <       0.02969927 Ry

     iteration #  4     ecut=    80.00 Ry     beta= 0.40
     Davidson diagonalization with overlap
     ethr =  9.28E-05,  avg # of iterations =  3.6

     total cpu time spent up to now is        9.7 secs

     total energy              =    -109.63572977 Ry
     estimated scf accuracy    <       0.00341710 Ry

     iteration #  5     ecut=    80.00 Ry     beta= 0.40
     Davidson diagonalization with overlap
     ethr =  1.07E-05,  avg # of iterations =  6.8

     total cpu time spent up to now is       12.3 secs

     total energy              =    -109.63642244 Ry
     estimated scf accuracy    <       0.00042294 Ry

     iteration #  6     ecut=    80.00 Ry     beta= 0.40
     Davidson diagonalization with overlap
     ethr =  1.32E-06,  avg # of iterations =  4.6

     total cpu time spent up to now is       14.6 secs

     total energy              =    -109.63652171 Ry
     estimated scf accuracy    <       0.00006728 Ry

     iteration #  7     ecut=    80.00 Ry     beta= 0.40
     Davidson diagonalization with overlap
     ethr =  2.10E-07,  avg # of iterations =  3.9

     total cpu time spent up to now is       16.9 secs

     total energy              =    -109.63653572 Ry
     estimated scf accuracy    <       0.00001303 Ry

     iteration #  8     ecut=    80.00 Ry     beta= 0.40
     Davidson diagonalization with overlap
     ethr =  4.07E-08,  avg # of iterations =  3.1

     total cpu time spent up to now is       19.0 secs

     total energy              =    -109.63654000 Ry
     estimated scf accuracy    <       0.00000057 Ry

     iteration #  9     ecut=    80.00 Ry     beta= 0.40
     Davidson diagonalization with overlap
     ethr =  1.79E-09,  avg # of iterations =  4.3

     total cpu time spent up to now is       21.5 secs

     total energy              =    -109.63654025 Ry
     estimated scf accuracy    <       0.00000010 Ry

     iteration # 10     ecut=    80.00 Ry     beta= 0.40
     Davidson diagonalization with overlap
     ethr =  3.10E-10,  avg # of iterations =  3.8

     total cpu time spent up to now is       23.8 secs

     total energy              =    -109.63654030 Ry
     estimated scf accuracy    <       0.00000009 Ry

     iteration # 11     ecut=    80.00 Ry     beta= 0.40
     Davidson diagonalization with overlap
     ethr =  2.79E-10,  avg # of iterations =  2.0

     total cpu time spent up to now is       25.5 secs

     total energy              =    -109.63654031 Ry
     estimated scf accuracy    <          5.5E-09 Ry

     iteration # 12     ecut=    80.00 Ry     beta= 0.40
     Davidson diagonalization with overlap
     ethr =  1.72E-11,  avg # of iterations =  4.9

     total cpu time spent up to now is       28.2 secs

     total energy              =    -109.63654031 Ry
     estimated scf accuracy    <          4.0E-10 Ry

     iteration # 13     ecut=    80.00 Ry     beta= 0.40
     Davidson diagonalization with overlap
     ethr =  1.25E-12,  avg # of iterations =  4.3

     total cpu time spent up to now is       30.7 secs

     total energy              =    -109.63654031 Ry
     estimated scf accuracy    <          3.6E-10 Ry

     iteration # 14     ecut=    80.00 Ry     beta= 0.40
     Davidson diagonalization with overlap
     ethr =  1.12E-12,  avg # of iterations =  2.0

     total cpu time spent up to now is       32.5 secs

     End of self-consistent calculation

          k = 0.0000 0.0000 0.0000 (  6083 PWs)   bands (ev):

   -13.7066 -11.7823 -10.6899 -10.0376  -4.3725  -2.5845  -1.8523   0.4580
     0.7538   0.8579   1.3902   2.0842   2.1376   3.4929   3.8006   4.1366
     9.3264  10.6658  11.6287  13.0318

     occupation numbers 
     1.0000   1.0000   1.0000   1.0000   1.0000   1.0000   1.0000   1.0000
     1.0000   1.0000   1.0000   1.0000   1.0000   1.0000   1.0000   1.0000
     0.0000   0.0000   0.0000   0.0000

          k = 0.0000 0.0000 0.3920 (  6089 PWs)   bands (ev):

   -13.4968 -11.7646 -10.8672 -10.4610  -3.3742  -2.4961  -1.7206   0.2456
     0.5916   0.6686   0.9123   1.9824   2.5892   3.2371   3.4835   3.8216
    10.2138  10.5857  11.6590  13.2241

     occupation numbers 
     1.0000   1.0000   1.0000   1.0000   1.0000   1.0000   1.0000   1.0000
     1.0000   1.0000   1.0000   1.0000   1.0000   1.0000   1.0000   1.0000
     0.0000   0.0000   0.0000   0.0000

          k = 0.0000 0.0000-0.7840 (  6094 PWs)   bands (ev):

   -13.2031 -11.7183 -11.4250 -10.5388  -2.6153  -2.0562  -1.3930  -0.2836
     0.6623   0.8064   0.9433   1.1944   1.7108   3.2465   3.4255   3.9010
    10.2514  11.7757  12.1534  13.0927

     occupation numbers 
     1.0000   1.0000   1.0000   1.0000   1.0000   1.0000   1.0000   1.0000
     1.0000   1.0000   1.0000   1.0000   1.0000   1.0000   1.0000   1.0000
     0.0000   0.0000   0.0000   0.0000

          k = 0.0000 0.5591-0.0010 (  6095 PWs)   bands (ev):

   -13.1117 -11.4238 -10.1788  -9.7022  -3.8521  -2.8965  -1.8345  -0.9953
    -0.3483   0.4333   1.0410   1.5378   1.9750   2.6289   2.8180   3.6868
     9.8983  10.3848  11.6912  13.0605

     occupation numbers 
     1.0000   1.0000   1.0000   1.0000   1.0000   1.0000   1.0000   1.0000
     1.0000   1.0000   1.0000   1.0000   1.0000   1.0000   1.0000   1.0000
     0.0000   0.0000   0.0000   0.0000

          k = 0.0000 0.5591 0.3910 (  6106 PWs)   bands (ev):

   -12.9027 -11.4418 -10.3438 -10.0306  -3.2465  -2.7692  -1.5574  -0.8442
    -0.3230   0.2461   0.4922   1.2326   1.8330   2.4299   2.8523   3.7995
     9.7417  11.1199  11.9641  12.9175

     occupation numbers 
     1.0000   1.0000   1.0000   1.0000   1.0000   1.0000   1.0000   1.0000
     1.0000   1.0000   1.0000   1.0000   1.0000   1.0000   1.0000   1.0000
     0.0000   0.0000   0.0000   0.0000

          k = 0.0000 0.5591-0.7849 (  6100 PWs)   bands (ev):

   -12.6203 -11.3030 -11.0888  -9.9481  -3.0343  -1.9718  -1.5082  -0.7741
    -0.2431  -0.0837   0.3642   0.9887   1.3645   2.0357   2.8883   3.9868
     9.7684  11.6771  12.1001  13.3638

     occupation numbers 
     1.0000   1.0000   1.0000   1.0000   1.0000   1.0000   1.0000   1.0000
     1.0000   1.0000   1.0000   1.0000   1.0000   1.0000   1.0000   1.0000
     0.0000   0.0000   0.0000   0.0000

          k = 0.0000 0.5591-0.3929 (  6105 PWs)   bands (ev):

   -12.9121 -11.3480 -10.6155  -9.8323  -3.3590  -2.4874  -1.6721  -0.8148
    -0.4363  -0.0135   0.6741   1.2815   1.5813   2.6830   2.8855   3.8305
     9.9910  11.0516  11.7472  13.2153

     occupation numbers 
     1.0000   1.0000   1.0000   1.0000   1.0000   1.0000   1.0000   1.0000
     1.0000   1.0000   1.0000   1.0000   1.0000   1.0000   1.0000   1.0000
     0.0000   0.0000   0.0000   0.0000

          k = 0.0000 1.1181-0.0019 (  6110 PWs)   bands (ev):

   -11.5312 -10.5108  -9.7335  -9.2101  -3.8736  -3.5624  -2.5305  -2.2632
    -1.6105  -1.3572  -0.1896   0.4209   1.3078   3.0007   4.0207   4.7509
     8.4600   9.6044  10.6965  12.6012

     occupation numbers 
     1.0000   1.0000   1.0000   1.0000   1.0000   1.0000   1.0000   1.0000
     1.0000   1.0000   1.0000   1.0000   1.0000   1.0000   1.0000   1.0628
     0.0000   0.0000   0.0000   0.0000

          k = 0.0000 1.1181 0.3901 (  6120 PWs)   bands (ev):

   -11.3753 -10.5066  -9.8692  -9.2322  -4.1666  -3.7754  -2.9889  -2.0904
    -1.4758  -0.6682  -0.1422   0.8171   1.3927   2.7314   3.8392   4.9325
     7.8227   9.9801  10.6199  12.8906

     occupation numbers 
     1.0000   1.0000   1.0000   1.0000   1.0000   1.0000   1.0000   1.0000
     1.0000   1.0000   1.0000   1.0000   1.0000   1.0000   1.0000   1.0643
     0.0000   0.0000   0.0000   0.0000

          k = 0.0000 1.1181-0.7859 (  6126 PWs)   bands (ev):

   -11.1815 -10.4485 -10.1259  -9.2354  -4.2354  -3.8896  -3.3899  -2.1694
    -1.5310  -0.1309   0.4410   1.0050   1.2448   2.6293   3.7749   5.0057
     7.5195   9.8434  10.6108  12.7075

     occupation numbers 
     1.0000   1.0000   1.0000   1.0000   1.0000   1.0000   1.0000   1.0000
     1.0000   1.0000   1.0000   1.0000   1.0000   1.0000   1.0000   0.9988
     0.0000   0.0000   0.0000   0.0000

          k = 0.0000 1.1181-0.3939 (  6117 PWs)   bands (ev):

   -11.3850 -10.4758  -9.9003  -9.2266  -4.1645  -3.5697  -3.1084  -2.1273
    -1.6533  -0.6888  -0.0452   0.8807   1.3076   2.8075   3.8602   4.9230
     7.9252   9.8224  10.6022  12.8626

     occupation numbers 
     1.0000   1.0000   1.0000   1.0000   1.0000   1.0000   1.0000   1.0000
     1.0000   1.0000   1.0000   1.0000   1.0000   1.0000   1.0000   1.0691
     0.0000   0.0000   0.0000   0.0000

          k = 0.1111 0.0313-0.0010 (  6086 PWs)   bands (ev):

   -13.6955 -11.8504 -10.6257 -10.0227  -4.3709  -2.9595  -1.4168   0.4299
     0.6537   0.8920   1.4904   2.1072   2.1629   3.4192   3.7391   4.1038
     9.3939  10.5266  11.7935  12.7879

     occupation numbers 
     1.0000   1.0000   1.0000   1.0000   1.0000   1.0000   1.0000   1.0000
     1.0000   1.0000   1.0000   1.0000   1.0000   1.0000   1.0000   1.0000
     0.0000   0.0000   0.0000   0.0000

          k = 0.1111 0.0313 0.3909 (  6086 PWs)   bands (ev):

   -13.4808 -11.8655 -10.7179 -10.5068  -3.2841  -2.9750  -1.2293   0.0062
     0.5825   0.8779   0.9887   1.9808   2.5571   3.1975   3.4318   3.7619
    10.1953  10.3788  12.0347  13.3099

     occupation numbers 
     1.0000   1.0000   1.0000   1.0000   1.0000   1.0000   1.0000   1.0000
     1.0000   1.0000   1.0000   1.0000   1.0000   1.0000   1.0000   1.0000
     0.0000   0.0000   0.0000   0.0000

          k = 0.1111 0.0313-0.7850 (  6094 PWs)   bands (ev):

   -13.1853 -11.7423 -11.5047 -10.4283  -3.0252  -1.6521  -1.3728  -0.2501
     0.5817   0.7708   1.0975   1.1896   1.7632   3.1986   3.3624   3.8089
    10.2766  11.7176  12.2078  13.1450

     occupation numbers 
     1.0000   1.0000   1.0000   1.0000   1.0000   1.0000   1.0000   1.0000
     1.0000   1.0000   1.0000   1.0000   1.0000   1.0000   1.0000   1.0000
     0.0000   0.0000   0.0000   0.0000

          k = 0.1111 0.0313-0.3930 (  6089 PWs)   bands (ev):

   -13.4864 -11.7810 -11.0076 -10.2856  -3.5729  -2.5264  -1.4933   0.2457
     0.6064   0.7219   0.9151   2.0230   2.5914   3.1986   3.4346   3.7263
    10.2743  10.7518  11.4468  13.0274

     occupation numbers 
     1.0000   1.0000   1.0000   1.0000   1.0000   1.0000   1.0000   1.0000
     1.0000   1.0000   1.0000   1.0000   1.0000   1.0000   1.0000   1.0000
     0.0000   0.0000   0.0000   0.0000

          k = 0.1111 0.5904-0.0020 (  6097 PWs)   bands (ev):

   -13.0788 -11.5683 -10.0700  -9.6481  -3.8653  -3.2323  -1.6325  -1.0844
    -0.0876   0.5936   0.8771   1.6457   1.9426   2.5750   2.7910   3.6533
     9.7193  10.5657  11.8674  12.9002

     occupation numbers 
     1.0000   1.0000   1.0000   1.0000   1.0000   1.0000   1.0000   1.0000
     1.0000   1.0000   1.0000   1.0000   1.0000   1.0000   1.0000   1.0000
     0.0000   0.0000   0.0000   0.0000

          k = 0.1111 0.5904 0.3900 (  6105 PWs)   bands (ev):

   -12.8611 -11.5810 -10.4026  -9.8199  -3.4798  -2.8523  -1.3291  -0.9415
    -0.3217   0.3355   0.6960   1.3529   1.7748   2.3667   2.7931   3.7052
     9.6589  11.1710  12.0887  12.8947

     occupation numbers 
     1.0000   1.0000   1.0000   1.0000   1.0000   1.0000   1.0000   1.0000
     1.0000   1.0000   1.0000   1.0000   1.0000   1.0000   1.0000   1.0000
     0.0000   0.0000   0.0000   0.0000

          k = 0.1111 0.5904-0.7859 (  6101 PWs)   bands (ev):

   -12.5641 -11.4436 -11.1451  -9.7499  -3.3883  -1.8153  -1.4270  -0.9112
    -0.2950   0.2102   0.4226   1.0518   1.5153   1.9224   2.8289   3.8233
     9.8106  11.4846  12.2600  13.1891

     occupation numbers 
     1.0000   1.0000   1.0000   1.0000   1.0000   1.0000   1.0000   1.0000
     1.0000   1.0000   1.0000   1.0000   1.0000   1.0000   1.0000   1.0000
     0.0000   0.0000   0.0000   0.0000

          k = 0.1111 0.5904-0.3940 (  6105 PWs)   bands (ev):

   -12.8736 -11.4953 -10.6113  -9.6716  -3.5818  -2.6038  -1.4699  -0.8923
    -0.3473   0.1148   0.6517   1.3540   1.8280   2.3814   2.9241   3.7468
     9.9527  11.0111  11.8888  13.1103

     occupation numbers 
     1.0000   1.0000   1.0000   1.0000   1.0000   1.0000   1.0000   1.0000
     1.0000   1.0000   1.0000   1.0000   1.0000   1.0000   1.0000   1.0000
     0.0000   0.0000   0.0000   0.0000

          k = 0.1111 1.1494-0.0029 (  6116 PWs)   bands (ev):

   -11.5149 -10.5411  -9.7466  -9.1896  -3.7497  -3.4573  -2.5119  -2.3528
    -1.7710  -1.6200  -0.1168   0.4193   1.5768   2.9815   4.0332   4.7594
     8.5302   9.5640  10.6383  12.4485

     occupation numbers 
     1.0000   1.0000   1.0000   1.0000   1.0000   1.0000   1.0000   1.0000
     1.0000   1.0000   1.0000   1.0000   1.0000   1.0000   1.0000   1.0653
     0.0000   0.0000   0.0000   0.0000

          k = 0.1111 1.1494 0.3890 (  6124 PWs)   bands (ev):

   -11.3602 -10.5216  -9.8933  -9.2194  -4.0786  -3.6513  -2.9303  -2.2656
    -1.8250  -0.6361  -0.1233   0.8830   1.5989   2.6989   3.9460   4.8614
     7.9107   9.7357  10.7691  12.6186

     occupation numbers 
     1.0000   1.0000   1.0000   1.0000   1.0000   1.0000   1.0000   1.0000
     1.0000   1.0000   1.0000   1.0000   1.0000   1.0000   1.0000   1.0833
     0.0000   0.0000   0.0000   0.0000

          k = 0.1111 1.1494-0.7869 (  6127 PWs)   bands (ev):

   -11.1623 -10.4706 -10.1331  -9.2397  -4.1170  -3.8479  -3.2563  -2.3541
    -1.8987  -0.0346   0.4250   1.0532   1.4208   2.6147   3.9245   4.9020
     7.6095   9.5451  10.8234  12.4840

     occupation numbers 
     1.0000   1.0000   1.0000   1.0000   1.0000   1.0000   1.0000   1.0000
     1.0000   1.0000   1.0000   1.0000   1.0000   1.0000   1.0000   1.0770
     0.0000   0.0000   0.0000   0.0000

          k = 0.1111 1.1494-0.3949 (  6120 PWs)   bands (ev):

   -11.3651 -10.5188  -9.8862  -9.2282  -4.0703  -3.4692  -2.9646  -2.3528
    -1.9902  -0.7400   0.0980   0.8333   1.5434   2.7825   3.9674   4.8671
     8.0150   9.5824  10.7660  12.5516

     occupation numbers 
     1.0000   1.0000   1.0000   1.0000   1.0000   1.0000   1.0000   1.0000
     1.0000   1.0000   1.0000   1.0000   1.0000   1.0000   1.0000   1.0830
     0.0000   0.0000   0.0000   0.0000

          k = 0.1111-1.0868 0.0009 (  6123 PWs)   bands (ev):

   -11.5563 -10.4447  -9.7434  -9.2391  -3.9442  -3.6432  -2.5625  -2.2300
    -1.5535  -0.9941  -0.2018   0.4396   0.9817   3.0312   3.9976   4.7323
     8.4179   9.6360  10.7268  12.6027

     occupation numbers 
     1.0000   1.0000   1.0000   1.0000   1.0000   1.0000   1.0000   1.0000
     1.0000   1.0000   1.0000   1.0000   1.0000   1.0000   1.0000   1.0570
     0.0000   0.0000   0.0000   0.0000

          k = 0.1111-1.0868 0.3928 (  6119 PWs)   bands (ev):

   -11.4133 -10.3999  -9.9272  -9.2408  -4.2222  -3.6611  -3.1939  -2.0056
    -1.3228  -0.6129  -0.0987   0.7245   1.1944   2.8539   3.7193   4.9884
     7.8623  10.0260  10.4563  13.0153

     occupation numbers 
     1.0000   1.0000   1.0000   1.0000   1.0000   1.0000   1.0000   1.0000
     1.0000   1.0000   1.0000   1.0000   1.0000   1.0000   1.0000   1.0191
     0.0000   0.0000   0.0000   0.0000

          k = 0.1111-1.0868-0.7831 (  6115 PWs)   bands (ev):

   -11.2146 -10.3916 -10.1172  -9.2596  -4.3057  -3.9226  -3.4846  -2.1043
    -1.1324  -0.1212   0.4565   0.7351   1.1938   2.6837   3.5912   5.1147
     7.4605  10.0587  10.4638  12.7235

     occupation numbers 
     1.0000   1.0000   1.0000   1.0000   1.0000   1.0000   1.0000   1.0000
     1.0000   1.0000   1.0000   1.0000   1.0000   1.0000   1.0000   0.8042
     0.0000   0.0000   0.0000   0.0000

          k = 0.1111-1.0868-0.3911 (  6125 PWs)   bands (ev):

   -11.4031 -10.4524  -9.8537  -9.2699  -4.2135  -3.8657  -3.0097  -2.0680
    -1.1106  -0.7168   0.0031   0.6766   1.1527   2.8037   3.6977   5.0036
     7.7711  10.1731  10.4768  12.9005

     occupation numbers 
     1.0000   1.0000   1.0000   1.0000   1.0000   1.0000   1.0000   1.0000
     1.0000   1.0000   1.0000   1.0000   1.0000   1.0000   1.0000   1.0014
     0.0000   0.0000   0.0000   0.0000

          k = 0.1111-0.5277-0.0001 (  6094 PWs)   bands (ev):

   -13.1301 -11.3220 -10.2659  -9.7298  -3.8453  -2.5228  -2.0604  -0.9975
    -0.5635   0.3890   1.2350   1.3877   1.8739   2.6296   2.9976   3.6988
    10.0627  10.3004  11.5396  13.1279

     occupation numbers 
     1.0000   1.0000   1.0000   1.0000   1.0000   1.0000   1.0000   1.0000
     1.0000   1.0000   1.0000   1.0000   1.0000   1.0000   1.0000   1.0000
     0.0000   0.0000   0.0000   0.0000

          k = 0.1111-0.5277 0.3919 (  6100 PWs)   bands (ev):

   -12.9314 -11.2835 -10.5350  -9.9947  -3.1739  -2.3630  -1.8406  -0.8753
    -0.5323  -0.0009   0.7338   1.1929   1.3987   2.7839   3.0194   3.8636
     9.9736  11.1252  11.7125  13.1280

     occupation numbers 
     1.0000   1.0000   1.0000   1.0000   1.0000   1.0000   1.0000   1.0000
     1.0000   1.0000   1.0000   1.0000   1.0000   1.0000   1.0000   1.0000
     0.0000   0.0000   0.0000   0.0000

          k = 0.1111-0.5277-0.7840 (  6105 PWs)   bands (ev):

   -12.6501 -11.2501 -10.9944 -10.1006  -2.6397  -2.2109  -1.5304  -0.7763
    -0.3597  -0.0870   0.3148   0.9205   1.3301   1.9908   3.0596   4.0656
     9.7706  11.7286  12.0289  13.5734

     occupation numbers 
     1.0000   1.0000   1.0000   1.0000   1.0000   1.0000   1.0000   1.0000
     1.0000   1.0000   1.0000   1.0000   1.0000   1.0000   1.0000   1.0000
     0.0000   0.0000   0.0000   0.0000

          k = 0.1111-0.5277-0.3921 (  6101 PWs)   bands (ev):

   -12.9274 -11.3229 -10.3948 -10.1046  -3.1812  -2.4992  -1.7949  -0.7673
    -0.4962   0.1935   0.5087   1.1411   1.7512   2.5017   2.9791   3.8472
     9.8643  11.1181  11.7217  13.0975

     occupation numbers 
     1.0000   1.0000   1.0000   1.0000   1.0000   1.0000   1.0000   1.0000
     1.0000   1.0000   1.0000   1.0000   1.0000   1.0000   1.0000   1.0000
     0.0000   0.0000   0.0000   0.0000

          k = 0.2222 0.0626-0.0021 (  6092 PWs)   bands (ev):

   -13.6660 -11.9989 -10.4979  -9.9741  -4.3668  -3.4655  -0.7337   0.3721
     0.4872   0.9655   1.6329   2.1417   2.2869   3.1723   3.6129   4.0172
     9.5800  10.2751  12.0452  12.4048

     occupation numbers 
     1.0000   1.0000   1.0000   1.0000   1.0000   1.0000   1.0000   1.0000
     1.0000   1.0000   1.0000   1.0000   1.0000   1.0000   1.0000   1.0000
     0.0000   0.0000   0.0000   0.0000

          k = 0.2222 0.0626 0.3899 (  6084 PWs)   bands (ev):

   -13.4430 -12.0144 -10.7730 -10.2815  -3.5890  -3.1175  -0.6366  -0.1178
     0.5175   1.0482   1.1857   2.0232   2.4814   3.0574   3.2998   3.6061
    10.0397  10.4399  12.4428  13.0402

     occupation numbers 
     1.0000   1.0000   1.0000   1.0000   1.0000   1.0000   1.0000   1.0000
     1.0000   1.0000   1.0000   1.0000   1.0000   1.0000   1.0000   1.0000
     0.0000   0.0000   0.0000   0.0000

          k = 0.2222 0.0626-0.7860 (  6099 PWs)   bands (ev):

   -13.1355 -11.8565 -11.6009 -10.2029  -3.5472  -1.4987  -0.9881  -0.1367
     0.4984   0.7234   1.1813   1.3623   1.8952   3.0311   3.2086   3.5680
    10.3406  11.5879  12.3351  13.2649

     occupation numbers 
     1.0000   1.0000   1.0000   1.0000   1.0000   1.0000   1.0000   1.0000
     1.0000   1.0000   1.0000   1.0000   1.0000   1.0000   1.0000   1.0000
     0.0000   0.0000   0.0000   0.0000

          k = 0.2222 0.0626-0.3941 (  6083 PWs)   bands (ev):

   -13.4527 -11.9167 -11.0374 -10.0883  -3.8599  -2.7509  -0.9232   0.1282
     0.5547   0.9786   1.0553   2.0907   2.5672   3.0311   3.2772   3.5689
    10.2885  10.7627  11.5743  12.8067

     occupation numbers 
     1.0000   1.0000   1.0000   1.0000   1.0000   1.0000   1.0000   1.0000
     1.0000   1.0000   1.0000   1.0000   1.0000   1.0000   1.0000   1.0000
     0.0000   0.0000   0.0000   0.0000

          k = 0.2222 0.6217-0.0030 (  6114 PWs)   bands (ev):

   -13.0450 -11.6876  -9.9999  -9.5849  -3.8856  -3.4449  -1.5395  -1.0752
    -0.0175   0.6627   0.9768   1.5947   1.8472   2.6061   2.8478   3.6015
     9.6042  10.8142  11.9460  12.6720

     occupation numbers 
     1.0000   1.0000   1.0000   1.0000   1.0000   1.0000   1.0000   1.0000
     1.0000   1.0000   1.0000   1.0000   1.0000   1.0000   1.0000   1.0000
     0.0000   0.0000   0.0000   0.0000

          k = 0.2222 0.6217 0.3889 (  6108 PWs)   bands (ev):

   -12.8199 -11.6879 -10.4625  -9.6408  -3.7018  -2.8472  -1.2102  -0.9338
    -0.3806   0.2999   0.9535   1.4295   1.7444   2.2910   2.8313   3.5902
     9.6441  11.2497  12.0442  13.0349

     occupation numbers 
     1.0000   1.0000   1.0000   1.0000   1.0000   1.0000   1.0000   1.0000
     1.0000   1.0000   1.0000   1.0000   1.0000   1.0000   1.0000   1.0000
     0.0000   0.0000   0.0000   0.0000

          k = 0.2222 0.6217-0.7870 (  6094 PWs)   bands (ev):

   -12.5005 -11.5927 -11.1611  -9.5946  -3.6261  -1.7543  -1.3339  -0.9819
    -0.3410   0.2713   0.5068   1.2735   1.5462   1.7967   2.9087   3.6187
     9.8846  11.3045  12.3390  13.1422

     occupation numbers 
     1.0000   1.0000   1.0000   1.0000   1.0000   1.0000   1.0000   1.0000
     1.0000   1.0000   1.0000   1.0000   1.0000   1.0000   1.0000   1.0000
     0.0000   0.0000   0.0000   0.0000

          k = 0.2222 0.6217-0.3950 (  6104 PWs)   bands (ev):

   -12.8306 -11.6374 -10.5735  -9.5604  -3.7473  -2.6724  -1.3610  -0.9088
    -0.2902   0.0911   0.7484   1.4438   1.9382   2.2245   2.9809   3.6376
     9.8805  11.0499  12.0496  12.9568

     occupation numbers 
     1.0000   1.0000   1.0000   1.0000   1.0000   1.0000   1.0000   1.0000
     1.0000   1.0000   1.0000   1.0000   1.0000   1.0000   1.0000   1.0000
     0.0000   0.0000   0.0000   0.0000

          k = 0.2222 1.1807-0.0040 (  6106 PWs)   bands (ev):

   -11.5170 -10.5217  -9.7754  -9.1860  -3.5922  -3.3978  -2.6788  -2.3032
    -1.9615  -1.6901  -0.0544   0.4428   1.7186   2.9791   4.0313   4.7535
     8.5983   9.5305  10.5817  12.2294

     occupation numbers 
     1.0000   1.0000   1.0000   1.0000   1.0000   1.0000   1.0000   1.0000
     1.0000   1.0000   1.0000   1.0000   1.0000   1.0000   1.0000   1.0636
     0.0000   0.0000   0.0000   0.0000

          k = 0.2222 1.1807 0.3880 (  6130 PWs)   bands (ev):

   -11.3671 -10.4858  -9.9205  -9.2336  -3.9876  -3.5172  -2.9471  -2.3746
    -2.1106  -0.6092  -0.0263   0.9103   1.6867   2.7087   3.9687   4.8348
     8.0019   9.5309  10.8672  12.3163

     occupation numbers 
     1.0000   1.0000   1.0000   1.0000   1.0000   1.0000   1.0000   1.0000
     1.0000   1.0000   1.0000   1.0000   1.0000   1.0000   1.0000   1.0821
     0.0000   0.0000   0.0000   0.0000

          k = 0.2222 1.1807-0.7879 (  6119 PWs)   bands (ev):

   -11.1698 -10.4419 -10.1389  -9.2690  -4.0043  -3.7771  -3.2253  -2.5059
    -2.1214   0.0952   0.4063   1.0205   1.5496   2.6236   3.9688   4.8684
     7.6974   9.3019  10.9906  12.1978

     occupation numbers 
     1.0000   1.0000   1.0000   1.0000   1.0000   1.0000   1.0000   1.0000
     1.0000   1.0000   1.0000   1.0000   1.0000   1.0000   1.0000   1.0829
     0.0000   0.0000   0.0000   0.0000

          k = 0.2222 1.1807-0.3960 (  6129 PWs)   bands (ev):

   -11.3656 -10.5117  -9.8858  -9.2444  -3.9693  -3.4147  -2.8503  -2.5662
    -2.1688  -0.7804   0.2447   0.7490   1.7055   2.7727   3.9965   4.8529
     8.0949   9.3972  10.8886  12.2385

     occupation numbers 
     1.0000   1.0000   1.0000   1.0000   1.0000   1.0000   1.0000   1.0000
     1.0000   1.0000   1.0000   1.0000   1.0000   1.0000   1.0000   1.0833
     0.0000   0.0000   0.0000   0.0000

          k = 0.2222-1.0555-0.0002 (  6120 PWs)   bands (ev):

   -11.5777 -10.3672  -9.7810  -9.2609  -3.9515  -3.6606  -2.5969  -2.2611
    -1.6119  -0.6398  -0.1353   0.2681   0.8798   3.0569   3.9770   4.7109
     8.4205   9.6479  10.7100  12.5132

     occupation numbers 
     1.0000   1.0000   1.0000   1.0000   1.0000   1.0000   1.0000   1.0000
     1.0000   1.0000   1.0000   1.0000   1.0000   1.0000   1.0000   1.0503
     0.0000   0.0000   0.0000   0.0000

          k = 0.2222-1.0555 0.3918 (  6116 PWs)   bands (ev):

   -11.4362 -10.3189  -9.9619  -9.2647  -4.2279  -3.6892  -3.2448  -2.0537
    -1.0904  -0.4798  -0.0786   0.4066   1.2721   2.9027   3.6035   5.0353
     7.8464   9.9870  10.5170  12.8374

     occupation numbers 
     1.0000   1.0000   1.0000   1.0000   1.0000   1.0000   1.0000   1.0000
     1.0000   1.0000   1.0000   1.0000   1.0000   1.0000   1.0000   0.9569
     0.0000   0.0000   0.0000   0.0000

          k = 0.2222-1.0555-0.7841 (  6116 PWs)   bands (ev):

   -11.2439 -10.3277 -10.1087  -9.3047  -4.3049  -3.9375  -3.5125  -2.2181
    -0.7624  -0.0683   0.3683   0.5410   1.2125   2.7571   3.4441   5.1851
     7.4505   9.9254  10.6256  12.5108

     occupation numbers 
     1.0000   1.0000   1.0000   1.0000   1.0000   1.0000   1.0000   1.0000
     1.0000   1.0000   1.0000   1.0000   1.0000   1.0000   1.0000   0.6352
     0.0000   0.0000   0.0000   0.0000

          k = 0.2222-1.0555-0.3922 (  6120 PWs)   bands (ev):

   -11.4288 -10.3819  -9.8562  -9.3170  -4.2030  -3.8946  -2.9903  -2.2203
    -0.9317  -0.6194   0.2429   0.4249   1.0292   2.8837   3.5799   5.0432
     7.7734  10.0823  10.5539  12.6667

     occupation numbers 
     1.0000   1.0000   1.0000   1.0000   1.0000   1.0000   1.0000   1.0000
     1.0000   1.0000   1.0000   1.0000   1.0000   1.0000   1.0000   0.9443
     0.0000   0.0000   0.0000   0.0000

          k = 0.2222-0.4964-0.0011 (  6091 PWs)   bands (ev):

   -13.1276 -11.3360 -10.2492  -9.7337  -3.8412  -2.5692  -1.8978  -1.1904
    -0.5247   0.4108   1.1592   1.4510   1.8001   2.6071   3.1533   3.6909
    10.0880  10.3388  11.5415  13.0910

     occupation numbers 
     1.0000   1.0000   1.0000   1.0000   1.0000   1.0000   1.0000   1.0000
     1.0000   1.0000   1.0000   1.0000   1.0000   1.0000   1.0000   1.0000
     0.0000   0.0000   0.0000   0.0000

          k = 0.2222-0.4964 0.3908 (  6106 PWs)   bands (ev):

   -12.9258 -11.3415 -10.3811 -10.0985  -3.0863  -2.5138  -1.6611  -1.0715
    -0.5499   0.1736   0.6704   1.0352   1.4634   2.7376   3.2077   3.8386
     9.9215  11.1528  11.8244  12.9821

     occupation numbers 
     1.0000   1.0000   1.0000   1.0000   1.0000   1.0000   1.0000   1.0000
     1.0000   1.0000   1.0000   1.0000   1.0000   1.0000   1.0000   1.0000
     0.0000   0.0000   0.0000   0.0000

          k = 0.2222-0.4964-0.7851 (  6090 PWs)   bands (ev):

   -12.6469 -11.2524 -11.0080 -10.0864  -2.6563  -2.1229  -1.5035  -0.9852
    -0.3408   0.0204   0.3074   0.7938   1.4461   1.8977   3.2022   4.0448
     9.8174  11.5260  12.1878  13.6582

     occupation numbers 
     1.0000   1.0000   1.0000   1.0000   1.0000   1.0000   1.0000   1.0000
     1.0000   1.0000   1.0000   1.0000   1.0000   1.0000   1.0000   1.0000
     0.0000   0.0000   0.0000   0.0000

          k = 0.2222-0.4964-0.3931 (  6095 PWs)   bands (ev):

   -12.9275 -11.2881 -10.5418  -9.9871  -3.2461  -2.3643  -1.7967  -0.8606
    -0.5467   0.2968   0.4146   1.2217   1.6067   2.5706   3.0617   3.8425
     9.9796  11.0998  11.5887  13.2829

     occupation numbers 
     1.0000   1.0000   1.0000   1.0000   1.0000   1.0000   1.0000   1.0000
     1.0000   1.0000   1.0000   1.0000   1.0000   1.0000   1.0000   1.0000
     0.0000   0.0000   0.0000   0.0000

          k = 0.3333 0.0939-0.0031 (  6085 PWs)   bands (ev):

   -13.6292 -12.1443 -10.3981  -9.8964  -4.3629  -3.8558  -0.1071   0.3117
     0.4218   1.0350   1.6948   2.1703   2.4311   2.8586   3.4759   3.9053
     9.7866  10.1363  11.6692  12.6551

     occupation numbers 
     1.0000   1.0000   1.0000   1.0000   1.0000   1.0000   1.0000   1.0000
     1.0000   1.0000   1.0000   1.0000   1.0000   1.0000   1.0000   1.0000
     0.0000   0.0000   0.0000   0.0000

          k = 0.3333 0.0939 0.3889 (  6076 PWs)   bands (ev):

   -13.3971 -12.1494 -10.8472 -10.0427  -3.9938  -3.0657  -0.4962   0.3018
     0.4810   1.1025   1.4083   2.0994   2.3449   2.7768   3.1682   3.4653
     9.8932  10.6473  12.6179  12.8569

     occupation numbers 
     1.0000   1.0000   1.0000   1.0000   1.0000   1.0000   1.0000   1.0000
     1.0000   1.0000   1.0000   1.0000   1.0000   1.0000   1.0000   1.0000
     0.0000   0.0000   0.0000   0.0000

          k = 0.3333 0.0939-0.7871 (  6105 PWs)   bands (ev):

   -13.0674 -12.0310 -11.6299  -9.9897  -3.9507  -1.5276  -0.6286   0.0339
     0.5796   0.7018   1.1758   1.6192   2.0531   2.7303   3.0442   3.2670
    10.4149  11.4522  12.4819  13.3374

     occupation numbers 
     1.0000   1.0000   1.0000   1.0000   1.0000   1.0000   1.0000   1.0000
     1.0000   1.0000   1.0000   1.0000   1.0000   1.0000   1.0000   1.0000
     0.0000   0.0000   0.0000   0.0000

          k = 0.3333 0.0939-0.3951 (  6086 PWs)   bands (ev):

   -13.4071 -12.0810 -11.0098  -9.9228  -4.1362  -2.8804  -0.5868   0.3021
     0.5039   1.0470   1.4185   2.1603   2.5023   2.6310   3.1379   3.4553
    10.1131  10.9001  11.8117  12.6596

     occupation numbers 
     1.0000   1.0000   1.0000   1.0000   1.0000   1.0000   1.0000   1.0000
     1.0000   1.0000   1.0000   1.0000   1.0000   1.0000   1.0000   1.0000
     0.0000   0.0000   0.0000   0.0000

          k = 0.3333 0.6530-0.0041 (  6106 PWs)   bands (ev):

   -13.0283 -11.7394  -9.9727  -9.5567  -3.8924  -3.5176  -1.5517  -0.9483
    -0.1109   0.6316   1.0280   1.5245   1.8855   2.6533   2.9319   3.5554
     9.5839  11.0272  11.9189  12.4726

     occupation numbers 
     1.0000   1.0000   1.0000   1.0000   1.0000   1.0000   1.0000   1.0000
     1.0000   1.0000   1.0000   1.0000   1.0000   1.0000   1.0000   1.0000
     0.0000   0.0000   0.0000   0.0000

          k = 0.3333 0.6530 0.3879 (  6099 PWs)   bands (ev):

   -12.8024 -11.7203 -10.5147  -9.5476  -3.8012  -2.8194  -1.2403  -0.7759
    -0.4343   0.2771   0.7305   1.5520   1.9835   2.1818   2.8898   3.5175
     9.7036  11.2760  11.9883  13.1562

     occupation numbers 
     1.0000   1.0000   1.0000   1.0000   1.0000   1.0000   1.0000   1.0000
     1.0000   1.0000   1.0000   1.0000   1.0000   1.0000   1.0000   1.0000
     0.0000   0.0000   0.0000   0.0000

          k = 0.3333 0.6530-0.7880 (  6089 PWs)   bands (ev):

   -12.4661 -11.6625 -11.1652  -9.5320  -3.7058  -1.7385  -1.3382  -0.9080
    -0.3402   0.1276   0.5578   1.2259   1.5782   1.9215   3.0192   3.4806
     9.9628  11.1671  12.3823  13.1793

     occupation numbers 
     1.0000   1.0000   1.0000   1.0000   1.0000   1.0000   1.0000   1.0000
     1.0000   1.0000   1.0000   1.0000   1.0000   1.0000   1.0000   1.0000
     0.0000   0.0000   0.0000   0.0000

          k = 0.3333 0.6530-0.3961 (  6093 PWs)   bands (ev):

   -12.8057 -11.7152 -10.5251  -9.5377  -3.7848  -2.7175  -1.3580  -0.8241
    -0.2357  -0.0230   0.7088   1.5043   1.8538   2.3705   3.0502   3.5571
     9.8208  11.1274  12.1788  12.7973

     occupation numbers 
     1.0000   1.0000   1.0000   1.0000   1.0000   1.0000   1.0000   1.0000
     1.0000   1.0000   1.0000   1.0000   1.0000   1.0000   1.0000   1.0000
     0.0000   0.0000   0.0000   0.0000

          k = 0.3333 1.2120-0.0050 (  6102 PWs)   bands (ev):

   -11.5360 -10.4571  -9.8133  -9.1994  -3.5103  -3.3641  -2.9012  -2.2955
    -1.9436  -1.6043  -0.0281   0.4416   1.7174   2.9906   4.0196   4.7344
     8.6294   9.5233  10.5489  12.0740

     occupation numbers 
     1.0000   1.0000   1.0000   1.0000   1.0000   1.0000   1.0000   1.0000
     1.0000   1.0000   1.0000   1.0000   1.0000   1.0000   1.0000   1.0576
     0.0000   0.0000   0.0000   0.0000

          k = 0.3333 1.2120 0.3869 (  6120 PWs)   bands (ev):

   -11.3912 -10.4106  -9.9454  -9.2680  -3.9455  -3.3966  -3.1168  -2.4854
    -2.0455  -0.5668   0.0588   0.8961   1.6427   2.7463   3.8966   4.8687
     8.0483   9.4280  10.9011  12.1141

     occupation numbers 
     1.0000   1.0000   1.0000   1.0000   1.0000   1.0000   1.0000   1.0000
     1.0000   1.0000   1.0000   1.0000   1.0000   1.0000   1.0000   1.0829
     0.0000   0.0000   0.0000   0.0000

          k = 0.3333 1.2120-0.7890 (  6120 PWs)   bands (ev):

   -11.1982 -10.3735 -10.1420  -9.3124  -3.9604  -3.6923  -3.3441  -2.6928
    -1.9443   0.1874   0.3795   0.9609   1.5762   2.6405   3.8802   4.9322
     7.7329   9.1865  11.0782  11.9887

     occupation numbers 
     1.0000   1.0000   1.0000   1.0000   1.0000   1.0000   1.0000   1.0000
     1.0000   1.0000   1.0000   1.0000   1.0000   1.0000   1.0000   1.0645
     0.0000   0.0000   0.0000   0.0000

          k = 0.3333 1.2120-0.3970 (  6128 PWs)   bands (ev):

   -11.3861 -10.4566  -9.9007  -9.2681  -3.9161  -3.4158  -2.9711  -2.6847
    -1.9430  -0.8163   0.3217   0.6590   1.7584   2.7740   3.9338   4.8911
     8.1161   9.3276  10.9504  12.0339

     occupation numbers 
     1.0000   1.0000   1.0000   1.0000   1.0000   1.0000   1.0000   1.0000
     1.0000   1.0000   1.0000   1.0000   1.0000   1.0000   1.0000   1.0798
     0.0000   0.0000   0.0000   0.0000

          k = 0.3333-1.0242-0.0012 (  6117 PWs)   bands (ev):

   -11.5869 -10.3097  -9.8337  -9.2638  -3.8923  -3.6049  -2.6648  -2.3250
    -1.7142  -0.4901  -0.1016   0.0542   1.0793   3.0611   3.9725   4.6957
     8.4668   9.6339  10.6539  12.3669

     occupation numbers 
     1.0000   1.0000   1.0000   1.0000   1.0000   1.0000   1.0000   1.0000
     1.0000   1.0000   1.0000   1.0000   1.0000   1.0000   1.0000   1.0456
     0.0000   0.0000   0.0000   0.0000

          k = 0.3333-1.0242 0.3908 (  6107 PWs)   bands (ev):

   -11.4449 -10.2725  -9.9845  -9.2870  -4.1759  -3.6370  -3.2771  -2.2312
    -0.9755  -0.5275  -0.0746   0.3566   1.4097   2.9066   3.5814   5.0463
     7.8841   9.7808  10.7016  12.4585

     occupation numbers 
     1.0000   1.0000   1.0000   1.0000   1.0000   1.0000   1.0000   1.0000
     1.0000   1.0000   1.0000   1.0000   1.0000   1.0000   1.0000   0.9392
     0.0000   0.0000   0.0000   0.0000

          k = 0.3333-1.0242-0.7852 (  6104 PWs)   bands (ev):

   -11.2582 -10.2806 -10.1070  -9.3502  -4.2272  -3.9257  -3.4812  -2.4443
    -0.6466  -0.1398   0.3240   0.6302   1.2696   2.7823   3.4170   5.1948
     7.4960   9.6665  10.8551  12.2163

     occupation numbers 
     1.0000   1.0000   1.0000   1.0000   1.0000   1.0000   1.0000   1.0000
     1.0000   1.0000   1.0000   1.0000   1.0000   1.0000   1.0000   0.6108
     0.0000   0.0000   0.0000   0.0000

          k = 0.3333-1.0242-0.3932 (  6106 PWs)   bands (ev):

   -11.4420 -10.3197  -9.8864  -9.3471  -4.1391  -3.8479  -2.9350  -2.4727
    -1.0600  -0.3562   0.0397   0.5923   1.0563   2.9135   3.5519   5.0401
     7.8308   9.8520  10.7060  12.3779

     occupation numbers 
     1.0000   1.0000   1.0000   1.0000   1.0000   1.0000   1.0000   1.0000
     1.0000   1.0000   1.0000   1.0000   1.0000   1.0000   1.0000   0.9493
     0.0000   0.0000   0.0000   0.0000

          k = 0.3333-0.4651-0.0022 (  6104 PWs)   bands (ev):

   -13.1051 -11.4538 -10.1419  -9.7120  -3.8401  -2.9173  -1.5746  -1.2357
    -0.4718   0.4783   1.0197   1.4312   1.9171   2.5914   3.2038   3.6580
     9.9622  10.4980  11.7051  12.9439

     occupation numbers 
     1.0000   1.0000   1.0000   1.0000   1.0000   1.0000   1.0000   1.0000
     1.0000   1.0000   1.0000   1.0000   1.0000   1.0000   1.0000   1.0000
     0.0000   0.0000   0.0000   0.0000

          k = 0.3333-0.4651 0.3898 (  6097 PWs)   bands (ev):

   -12.8967 -11.4700 -10.3477  -9.9995  -3.1642  -2.7312  -1.3406  -1.1436
    -0.5751   0.2839   0.6554   0.8711   1.6715   2.6798   3.2757   3.7636
     9.8615  11.1743  11.9659  12.9019

     occupation numbers 
     1.0000   1.0000   1.0000   1.0000   1.0000   1.0000   1.0000   1.0000
     1.0000   1.0000   1.0000   1.0000   1.0000   1.0000   1.0000   1.0000
     0.0000   0.0000   0.0000   0.0000

          k = 0.3333-0.4651-0.7861 (  6086 PWs)   bands (ev):

   -12.6112 -11.3178 -11.1066  -9.9206  -3.0196  -1.8546  -1.4244  -1.0642
    -0.3558   0.0458   0.3905   0.7499   1.5475   1.8972   3.2322   3.9327
     9.8950  11.3146  12.3463  13.5459

     occupation numbers 
     1.0000   1.0000   1.0000   1.0000   1.0000   1.0000   1.0000   1.0000
     1.0000   1.0000   1.0000   1.0000   1.0000   1.0000   1.0000   1.0000
     0.0000   0.0000   0.0000   0.0000

          k = 0.3333-0.4651-0.3941 (  6089 PWs)   bands (ev):

   -12.9032 -11.3753 -10.6057  -9.8211  -3.3933  -2.5401  -1.4819  -0.9373
    -0.4854   0.1812   0.4816   1.3344   1.5836   2.6285   3.0300   3.7833
    10.0215  11.0424  11.6777  13.3397

     occupation numbers 
     1.0000   1.0000   1.0000   1.0000   1.0000   1.0000   1.0000   1.0000
     1.0000   1.0000   1.0000   1.0000   1.0000   1.0000   1.0000   1.0000
     0.0000   0.0000   0.0000   0.0000

          k = 0.4444 0.1252-0.0042 (  6088 PWs)   bands (ev):

   -13.6030 -12.2317 -10.3532  -9.8331  -4.3618  -4.0664   0.1102   0.2819
     0.6780   1.0739   1.6766   2.1721   2.2590   2.9042   3.3365   3.8210
     9.7862  10.3239  11.2295  13.0019

     occupation numbers 
     1.0000   1.0000   1.0000   1.0000   1.0000   1.0000   1.0000   1.0000
     1.0000   1.0000   1.0000   1.0000   1.0000   1.0000   1.0000   1.0000
     0.0000   0.0000   0.0000   0.0000

          k = 0.4444 0.1252 0.3878 (  6079 PWs)   bands (ev):

   -13.3663 -12.2208 -10.9100  -9.8833  -4.2396  -3.0120  -0.5387   0.4315
     0.8986   1.1196   1.4777   2.1690   2.1815   2.5135   3.0837   3.3890
     9.8514  10.8782  12.2596  12.9603

     occupation numbers 
     1.0000   1.0000   1.0000   1.0000   1.0000   1.0000   1.0000   1.0000
     1.0000   1.0000   1.0000   1.0000   1.0000   1.0000   1.0000   1.0000
     0.0000   0.0000   0.0000   0.0000

          k = 0.4444 0.1252-0.7881 (  6102 PWs)   bands (ev):

   -13.0123 -12.1523 -11.6372  -9.8626  -4.1714  -1.5505  -0.4964   0.0916
     0.6296   0.9869   1.1747   1.6892   2.1640   2.5121   2.9120   3.0252
    10.4655  11.3656  12.5870  13.3482

     occupation numbers 
     1.0000   1.0000   1.0000   1.0000   1.0000   1.0000   1.0000   1.0000
     1.0000   1.0000   1.0000   1.0000   1.0000   1.0000   1.0000   1.0000
     0.0000   0.0000   0.0000   0.0000

          k = 0.4444 0.1252-0.3961 (  6081 PWs)   bands (ev):

   -13.3707 -12.1965 -10.9639  -9.8427  -4.2845  -2.9557  -0.5467   0.4369
     0.7903   1.0984   1.6550   2.1220   2.2103   2.4744   3.0683   3.3898
     9.9320  10.9986  11.9897  12.7525

     occupation numbers 
     1.0000   1.0000   1.0000   1.0000   1.0000   1.0000   1.0000   1.0000
     1.0000   1.0000   1.0000   1.0000   1.0000   1.0000   1.0000   1.0000
     0.0000   0.0000   0.0000   0.0000

          k = 0.4444 0.6843-0.0051 (  6101 PWs)   bands (ev):

   -13.0391 -11.7055  -9.9815  -9.5886  -3.8691  -3.4546  -1.5727  -0.8325
    -0.3191   0.6247   0.9115   1.4764   2.0141   2.6458   3.0394   3.5540
     9.6553  10.9816  11.9805  12.4045

     occupation numbers 
     1.0000   1.0000   1.0000   1.0000   1.0000   1.0000   1.0000   1.0000
     1.0000   1.0000   1.0000   1.0000   1.0000   1.0000   1.0000   1.0000
     0.0000   0.0000   0.0000   0.0000

          k = 0.4444 0.6843 0.3869 (  6092 PWs)   bands (ev):

   -12.8208 -11.6600 -10.5602  -9.5592  -3.7536  -2.7729  -1.2824  -0.6750
    -0.4458   0.1579   0.5466   1.4761   1.9968   2.3915   2.8939   3.5576
     9.8202  11.1959  11.9568  13.1777

     occupation numbers 
     1.0000   1.0000   1.0000   1.0000   1.0000   1.0000   1.0000   1.0000
     1.0000   1.0000   1.0000   1.0000   1.0000   1.0000   1.0000   1.0000
     0.0000   0.0000   0.0000   0.0000

          k = 0.4444 0.6843-0.7891 (  6080 PWs)   bands (ev):

   -12.4904 -11.6115 -11.1633  -9.5806  -3.6122  -1.7399  -1.3767  -0.8213
    -0.3142  -0.0627   0.5540   1.0150   1.5873   2.0787   3.0586   3.5627
    10.0020  11.1090  12.4359  13.2388

     occupation numbers 
     1.0000   1.0000   1.0000   1.0000   1.0000   1.0000   1.0000   1.0000
     1.0000   1.0000   1.0000   1.0000   1.0000   1.0000   1.0000   1.0000
     0.0000   0.0000   0.0000   0.0000

          k = 0.4444 0.6843-0.3971 (  6089 PWs)   bands (ev):

   -12.8157 -11.7014 -10.4706  -9.6193  -3.6697  -2.7521  -1.3708  -0.7355
    -0.3808   0.0105   0.6304   1.2835   1.9265   2.5086   3.1295   3.5708
     9.7982  11.1904  12.1873  12.7467

     occupation numbers 
     1.0000   1.0000   1.0000   1.0000   1.0000   1.0000   1.0000   1.0000
     1.0000   1.0000   1.0000   1.0000   1.0000   1.0000   1.0000   1.0000
     0.0000   0.0000   0.0000   0.0000

          k = 0.4444 1.2433-0.0061 (  6104 PWs)   bands (ev):

   -11.5611 -10.3719  -9.8499  -9.2234  -3.6266  -3.3485  -2.9532  -2.3513
    -1.8592  -1.2906  -0.0323   0.3658   1.5825   3.0135   4.0031   4.7105
     8.6048   9.5506  10.5508  12.0553

     occupation numbers 
     1.0000   1.0000   1.0000   1.0000   1.0000   1.0000   1.0000   1.0000
     1.0000   1.0000   1.0000   1.0000   1.0000   1.0000   1.0000   1.0502
     0.0000   0.0000   0.0000   0.0000

          k = 0.4444 1.2433 0.3859 (  6116 PWs)   bands (ev):

   -11.4190 -10.3305  -9.9559  -9.3100  -3.9730  -3.5195  -3.0251  -2.6828
    -1.6941  -0.4920   0.0778   0.8413   1.4797   2.8035   3.7685   4.9343
     8.0153   9.4671  10.8782  12.0619

     occupation numbers 
     1.0000   1.0000   1.0000   1.0000   1.0000   1.0000   1.0000   1.0000
     1.0000   1.0000   1.0000   1.0000   1.0000   1.0000   1.0000   1.0633
     0.0000   0.0000   0.0000   0.0000

          k = 0.4444 1.2433-0.7900 (  6111 PWs)   bands (ev):

   -11.2307 -10.3011 -10.1380  -9.3530  -3.9815  -3.7806  -3.3602  -2.8059
    -1.5253   0.1764   0.3581   0.8804   1.5034   2.6752   3.7121   5.0422
     7.6848   9.2364  11.0840  11.9184

     occupation numbers 
     1.0000   1.0000   1.0000   1.0000   1.0000   1.0000   1.0000   1.0000
     1.0000   1.0000   1.0000   1.0000   1.0000   1.0000   1.0000   0.9458
     0.0000   0.0000   0.0000   0.0000

          k = 0.4444 1.2433-0.3980 (  6120 PWs)   bands (ev):

   -11.4142 -10.3745  -9.9307  -9.2888  -3.9639  -3.4422  -3.1787  -2.6272
    -1.5006  -0.8521   0.2797   0.5715   1.7029   2.8000   3.8080   4.9571
     8.0598   9.3960  10.9407  11.9974

     occupation numbers 
     1.0000   1.0000   1.0000   1.0000   1.0000   1.0000   1.0000   1.0000
     1.0000   1.0000   1.0000   1.0000   1.0000   1.0000   1.0000   1.0482
     0.0000   0.0000   0.0000   0.0000

          k = 0.4444-0.9929-0.0023 (  6107 PWs)   bands (ev):

   -11.5806 -10.3089  -9.8638  -9.2485  -3.7753  -3.4850  -2.8018  -2.3648
    -1.7967  -0.8483  -0.0655   0.2070   1.3487   3.0419   3.9848   4.6949
     8.5389   9.5962  10.5902  12.1772

     occupation numbers 
     1.0000   1.0000   1.0000   1.0000   1.0000   1.0000   1.0000   1.0000
     1.0000   1.0000   1.0000   1.0000   1.0000   1.0000   1.0000   1.0454
     0.0000   0.0000   0.0000   0.0000

          k = 0.4444-0.9929 0.3897 (  6111 PWs)   bands (ev):

   -11.4366 -10.2982  -9.9680  -9.2965  -4.0755  -3.5250  -3.2807  -2.4493
    -1.0204  -0.8725   0.1219   0.4709   1.5685   2.8555   3.6693   5.0168
     7.9654   9.5649  10.8551  12.1467

     occupation numbers 
     1.0000   1.0000   1.0000   1.0000   1.0000   1.0000   1.0000   1.0000
     1.0000   1.0000   1.0000   1.0000   1.0000   1.0000   1.0000   0.9841
     0.0000   0.0000   0.0000   0.0000

          k = 0.4444-0.9929-0.7862 (  6101 PWs)   bands (ev):

   -11.2532 -10.2668 -10.1210  -9.3699  -4.0912  -3.8859  -3.4071  -2.6851
    -1.0397   0.0312   0.3506   0.7697   1.3765   2.7343   3.5327   5.1415
     7.5863   9.4177  11.0140  11.9957

     occupation numbers 
     1.0000   1.0000   1.0000   1.0000   1.0000   1.0000   1.0000   1.0000
     1.0000   1.0000   1.0000   1.0000   1.0000   1.0000   1.0000   0.7423
     0.0000   0.0000   0.0000   0.0000

          k = 0.4444-0.9929-0.3942 (  6114 PWs)   bands (ev):

   -11.4383 -10.2941  -9.9327  -9.3425  -4.0492  -3.7185  -2.8456  -2.7494
    -1.3281  -0.3653   0.0050   0.7552   1.2434   2.8711   3.6340   4.9989
     7.9250   9.6274  10.8143  12.1572

     occupation numbers 
     1.0000   1.0000   1.0000   1.0000   1.0000   1.0000   1.0000   1.0000
     1.0000   1.0000   1.0000   1.0000   1.0000   1.0000   1.0000   1.0071
     0.0000   0.0000   0.0000   0.0000

          k = 0.4444-0.4338-0.0032 (  6099 PWs)   bands (ev):

   -13.0706 -11.5977 -10.0355  -9.6573  -3.8468  -3.2431  -1.5610  -0.9412
    -0.4590   0.5654   0.9206   1.4162   2.0404   2.6033   3.1510   3.6015
     9.7945  10.7373  11.9126  12.6435

     occupation numbers 
     1.0000   1.0000   1.0000   1.0000   1.0000   1.0000   1.0000   1.0000
     1.0000   1.0000   1.0000   1.0000   1.0000   1.0000   1.0000   1.0000
     0.0000   0.0000   0.0000   0.0000

          k = 0.4444-0.4338 0.3888 (  6085 PWs)   bands (ev):

   -12.8536 -11.6067 -10.4090  -9.7896  -3.4280  -2.7732  -1.3509  -0.8122
    -0.5949   0.1682   0.6487   0.9949   1.8617   2.6088   3.2246   3.6617
     9.8149  11.2021  12.0791  12.8457

     occupation numbers 
     1.0000   1.0000   1.0000   1.0000   1.0000   1.0000   1.0000   1.0000
     1.0000   1.0000   1.0000   1.0000   1.0000   1.0000   1.0000   1.0000
     0.0000   0.0000   0.0000   0.0000

          k = 0.4444-0.4338-0.7872 (  6081 PWs)   bands (ev):

   -12.5517 -11.4694 -11.1518  -9.7253  -3.3660  -1.7603  -1.3941  -0.8981
    -0.3677  -0.0456   0.4965   0.8458   1.5632   2.0291   3.1495   3.7560
     9.9719  11.1625  12.4395  13.3610

     occupation numbers 
     1.0000   1.0000   1.0000   1.0000   1.0000   1.0000   1.0000   1.0000
     1.0000   1.0000   1.0000   1.0000   1.0000   1.0000   1.0000   1.0000
     0.0000   0.0000   0.0000   0.0000

          k = 0.4444-0.4338-0.3952 (  6095 PWs)   bands (ev):

   -12.8621 -11.5273 -10.5964  -9.6627  -3.5907  -2.6894  -1.3211  -0.7947
    -0.4293   0.0548   0.5387   1.3733   1.7826   2.6246   2.9178   3.6745
     9.9506  11.0811  11.8465  13.2437

     occupation numbers 
     1.0000   1.0000   1.0000   1.0000   1.0000   1.0000   1.0000   1.0000
     1.0000   1.0000   1.0000   1.0000   1.0000   1.0000   1.0000   1.0000
     0.0000   0.0000   0.0000   0.0000

     the Fermi energy is     5.2810 ev

!    total energy              =    -109.63654031 Ry
     estimated scf accuracy    <          1.1E-11 Ry
     smearing contrib. (-TS)   =       0.00164911 Ry
     internal energy E=F+TS    =    -109.63818942 Ry

     The total energy is F=E-TS. E is the sum of the following terms:
     one-electron contribution =     -52.39581762 Ry
     hartree contribution      =      42.75367740 Ry
     xc contribution           =     -37.02142938 Ry
     ewald contribution        =     -62.97461983 Ry

     convergence has been achieved in  14 iterations

     Forces acting on atoms (cartesian axes, Ry/au):

     atom    1 type  1   force =     0.00074835   -0.00182927    0.00746053
     atom    2 type  1   force =    -0.00445985    0.03026482    0.00338458
     atom    3 type  1   force =    -0.00826495    0.02562182    0.00038773
     atom    4 type  1   force =     0.00832964    0.00499423    0.00483986
     atom    5 type  2   force =    -0.00707367   -0.00718532    0.00128600
     atom    6 type  2   force =    -0.00280393    0.00707081   -0.01189599
     atom    7 type  2   force =     0.00848852   -0.03850341   -0.00406367
     atom    8 type  2   force =     0.00503590   -0.02043368   -0.00139904
     The non-local contrib.  to forces
     atom    1 type  1   force =    -0.01236402   -0.01979506   -0.08503590
     atom    2 type  1   force =     0.03762379    0.14791978    0.01196163
     atom    3 type  1   force =     0.04628958    0.14580877    0.00955856
     atom    4 type  1   force =    -0.06159576    0.05197423    0.04207838
     atom    5 type  2   force =    -0.15697107    0.04627072    0.12548994
     atom    6 type  2   force =     0.00474550   -0.00241104   -0.13234792
     atom    7 type  2   force =     0.07303652    0.06616676   -0.01689901
     atom    8 type  2   force =     0.06298808    0.08622298   -0.00683177
     The ionic contribution  to forces
     atom    1 type  1   force =     0.02053917   -0.11009513    0.35041389
     atom    2 type  1   force =     1.24344974    1.04630840   -0.09532952
     atom    3 type  1   force =    -2.10818561    0.06812397    0.11127126
     atom    4 type  1   force =     0.80148913    0.63258185   -0.49509032
     atom    5 type  2   force =    -1.04068165   -0.73086981    0.59470728
     atom    6 type  2   force =    -0.18098661    0.09553456   -0.58480068
     atom    7 type  2   force =     3.47780996    0.28769232   -0.13980549
     atom    8 type  2   force =    -2.21343413   -1.28927616    0.25863359
     The local contribution  to forces
     atom    1 type  1   force =    -0.00749754    0.12690668   -0.26285089
     atom    2 type  1   force =    -1.28401704   -1.15476436    0.08709940
     atom    3 type  1   force =     2.05629753   -0.17912869   -0.12026728
     atom    4 type  1   force =    -0.73410087   -0.67602355    0.45966060
     atom    5 type  2   force =     1.18668401    0.67670955   -0.71584814
     atom    6 type  2   force =     0.17309592   -0.08543297    0.70366461
     atom    7 type  2   force =    -3.54158924   -0.39622564    0.15223700
     atom    8 type  2   force =     2.15724252    1.17968793   -0.25330680
     The core correction contribution to forces
     atom    1 type  1   force =     0.00008914    0.00116272    0.00494468
     atom    2 type  1   force =    -0.00149865   -0.00919088   -0.00033732
     atom    3 type  1   force =    -0.00265022   -0.00917438   -0.00016536
     atom    4 type  1   force =     0.00255622   -0.00352955   -0.00180029
     atom    5 type  2   force =     0.00391382    0.00071278   -0.00305355
     atom    6 type  2   force =     0.00035979   -0.00061125    0.00159796
     atom    7 type  2   force =    -0.00075074    0.00387212    0.00041333
     atom    8 type  2   force =    -0.00174380    0.00293989    0.00011514
     The Hubbard contrib.    to forces
     atom    1 type  1   force =     0.00000000    0.00000000    0.00000000
     atom    2 type  1   force =     0.00000000    0.00000000    0.00000000
     atom    3 type  1   force =     0.00000000    0.00000000    0.00000000
     atom    4 type  1   force =     0.00000000    0.00000000    0.00000000
     atom    5 type  2   force =     0.00000000    0.00000000    0.00000000
     atom    6 type  2   force =     0.00000000    0.00000000    0.00000000
     atom    7 type  2   force =     0.00000000    0.00000000    0.00000000
     atom    8 type  2   force =     0.00000000    0.00000000    0.00000000
     The SCF correction term to forces
     atom    1 type  1   force =    -0.00000062   -0.00000018   -0.00000149
     atom    2 type  1   force =     0.00000008    0.00000019    0.00000015
     atom    3 type  1   force =     0.00000154    0.00000045    0.00000032
     atom    4 type  1   force =    -0.00000131   -0.00000043    0.00000126
     atom    5 type  2   force =    -0.00000101   -0.00000024    0.00000024
     atom    6 type  2   force =    -0.00000077   -0.00000020   -0.00000019
     atom    7 type  2   force =    -0.00000020   -0.00000066    0.00000027
     atom    8 type  2   force =     0.00000100   -0.00000001    0.00000056

     Total force =     0.064561     Total SCF correction =     0.000004


     Computing stress (Cartesian axis) and pressure

          total   stress  (Ry/bohr**3)                   (kbar)     P=      -89.42
  -0.00119418   0.00128385  -0.00008107         -175.67      188.86      -11.93
   0.00128385  -0.00051342   0.00010010          188.86      -75.53       14.73
  -0.00008107   0.00010010  -0.00011609          -11.93       14.73      -17.08

     kinetic stress (kbar)  13956.92    306.55   -123.38
                              306.55  13754.09      8.35
                             -123.38      8.35  14476.41

     local   stress (kbar)  -4567.62   4806.87  -2906.50
                             4806.87 -21745.53   -627.19
                            -2906.50   -627.19   4039.83

     nonloc. stress (kbar)  -1739.15    -39.39      8.01
                              -39.39  -1764.38     -3.79
                                8.01     -3.79  -1788.63

     hartree stress (kbar)   2753.13  -1893.05    905.91
                            -1893.05   9333.13    221.34
                              905.91    221.34    368.26

     exc-cor stress (kbar)   -736.40     -6.88      8.79
                               -6.88   -710.15      1.31
                                8.79      1.31   -765.95

     corecor stress (kbar)  -2259.35     -0.49     -3.37
                               -0.49  -2276.14     -0.69
                               -3.37     -0.69  -2251.69

     ewald   stress (kbar)  -7583.20  -2984.76   2098.63
                            -2984.76   3333.44    415.39
                             2098.63    415.39 -14095.31

     hubbard stress (kbar)      0.00      0.00      0.00
                                0.00      0.00      0.00
                                0.00      0.00      0.00

     DFT-D   stress (kbar)      0.00      0.00      0.00
                                0.00      0.00      0.00
                                0.00      0.00      0.00

     XDM     stress (kbar)      0.00      0.00      0.00
                                0.00      0.00      0.00
                                0.00      0.00      0.00

     dft-nl  stress (kbar)      0.00      0.00      0.00
                                0.00      0.00      0.00
                                0.00      0.00      0.00

     TS-vdW  stress (kbar)      0.00      0.00      0.00
                                0.00      0.00      0.00
                                0.00      0.00      0.00



     init_run     :      1.25s CPU      1.38s WALL (       1 calls)
     electrons    :     29.60s CPU     30.96s WALL (       1 calls)
     forces       :      0.53s CPU      0.54s WALL (       1 calls)
     stress       :      1.14s CPU      1.15s WALL (       1 calls)

     Called by init_run:
     wfcinit      :      0.83s CPU      0.91s WALL (       1 calls)
     wfcinit:atom :      0.01s CPU      0.01s WALL (      91 calls)
     wfcinit:wfcr :      0.73s CPU      0.81s WALL (      91 calls)
     potinit      :      0.14s CPU      0.14s WALL (       1 calls)
     hinit0       :      0.26s CPU      0.29s WALL (       1 calls)

     Called by electrons:
     c_bands      :     25.79s CPU     26.96s WALL (      14 calls)
     sum_band     :      3.50s CPU      3.64s WALL (      14 calls)
     v_of_rho     :      0.16s CPU      0.17s WALL (      15 calls)
     v_h          :      0.01s CPU      0.01s WALL (      15 calls)
     v_xc         :      0.17s CPU      0.18s WALL (      17 calls)
     newd         :      0.10s CPU      0.11s WALL (      15 calls)
     mix_rho      :      0.03s CPU      0.03s WALL (      14 calls)

     Called by c_bands:
     init_us_2    :      0.80s CPU      0.84s WALL (    2821 calls)
     cegterg      :     24.53s CPU     25.64s WALL (    1274 calls)

     Called by sum_band:
     sum_band:wei :      0.01s CPU      0.01s WALL (      14 calls)
     sum_band:loo :      3.38s CPU      3.52s WALL (      14 calls)
     sum_band:buf :      0.12s CPU      0.13s WALL (    1274 calls)
     sum_band:ini :      0.37s CPU      0.38s WALL (    1274 calls)
     sum_band:cal :      0.46s CPU      0.48s WALL (    1274 calls)
     sum_band:bec :      0.01s CPU      0.01s WALL (    1274 calls)
     addusdens    :      0.10s CPU      0.10s WALL (      14 calls)
     addusd:skk   :      0.00s CPU      0.00s WALL (      14 calls)
     addusd:dgemm :      0.04s CPU      0.04s WALL (      14 calls)
     addusd:qvan2 :      0.04s CPU      0.04s WALL (      14 calls)

     Called by *egterg:
     cdiaghg      :      2.16s CPU      2.45s WALL (    6042 calls)
     cegterg:over :      1.56s CPU      1.61s WALL (    4768 calls)
     cegterg:upda :      0.60s CPU      0.61s WALL (    4768 calls)
     cegterg:last :      0.95s CPU      0.97s WALL (    3207 calls)
     h_psi        :     18.22s CPU     19.00s WALL (    6133 calls)
     s_psi        :      0.74s CPU      0.77s WALL (    6133 calls)
     g_psi        :      0.08s CPU      0.09s WALL (    4768 calls)

     Called by h_psi:
     h_psi:calbec :      2.10s CPU      2.21s WALL (    6133 calls)
     vloc_psi     :     14.56s CPU     15.17s WALL (    6133 calls)
     add_vuspsi   :      1.30s CPU      1.35s WALL (    6133 calls)

     General routines
     calbec       :      2.72s CPU      2.85s WALL (    7862 calls)
     fft          :      0.08s CPU      0.10s WALL (     218 calls)
     ffts         :      0.00s CPU      0.01s WALL (      29 calls)
     fftw         :     14.92s CPU     15.55s WALL (  181668 calls)
     interpolate  :      0.01s CPU      0.01s WALL (      15 calls)

     Parallel routines
     fft_scatt_xy :      1.84s CPU      1.89s WALL (  181915 calls)
     fft_scatt_yz :      4.40s CPU      4.60s WALL (  181915 calls)

     PWSCF        :     32.62s CPU     34.22s WALL


   This run was terminated on:  21:11:31  28Sep2022            

=------------------------------------------------------------------------------=
   JOB DONE.
=------------------------------------------------------------------------------=
Note: The following floating-point exceptions are signalling: IEEE_UNDERFLOW_FLAG IEEE_DENORMAL
