ITEM: TIMESTEP
3500
ITEM: NUMBER OF ATOMS
8
ITEM: BOX BOUNDS xy xz yz pp pp pp
-4.2584740244731978e-01 6.7170674140349567e+00 -4.2233976822978225e-01
-6.3740716787878737e-02 2.5384654968611566e+00 3.9815279817437182e-02
-3.8847250273497114e-02 4.4371702548905194e+00 7.6295219752656445e-03
ITEM: ATOMS id type x y z
2 1 2.62986 0.506387 2.5297
6 2 -0.132548 1.14618 0.680693
4 1 0.383974 1.87368 2.01857
7 2 1.7241 1.66872 2.39718
1 1 6.66472 -0.219717 0.0708018
8 2 4.08928 0.663388 2.61088
3 1 4.47205 2.11181 2.80951
5 2 5.95491 2.23644 3.04201
