ITEM: TIMESTEP
6000
ITEM: NUMBER OF ATOMS
8
ITEM: BOX BOUNDS xy xz yz pp pp pp
-3.9128006290014511e-01 6.7003444145338227e+00 -4.0484510676075919e-01
-1.0002892066199420e-02 2.4847946785852182e+00 4.0164958394462706e-02
-5.8502611721707343e-02 4.4568256163387296e+00 7.6965284210304069e-03
ITEM: ATOMS id type x y z
2 1 2.55122 0.502021 2.49543
6 2 -0.0470568 1.18104 0.716195
4 1 0.30722 1.70913 2.00009
7 2 1.67505 1.65086 2.41688
1 1 6.68015 -0.0672814 -0.0086982
8 2 4.09506 0.740897 2.64422
3 1 4.54466 2.09844 2.80135
5 2 6.02786 2.15507 3.05199
