ITEM: TIMESTEP
1500
ITEM: NUMBER OF ATOMS
8
ITEM: BOX BOUNDS xy xz yz pp pp pp
-4.4865720866770709e-01 6.7567824949979070e+00 -4.0546000322918074e-01
-1.1891651028499428e-02 2.4866213193541533e+00 3.9840789559382937e-02
-4.0281147661935357e-02 4.4386041522789466e+00 7.6344102276564600e-03
ITEM: ATOMS id type x y z
2 1 2.62165 0.51623 2.43541
6 2 -0.089309 1.10368 0.733487
4 1 0.296023 1.77328 2.01719
7 2 1.65886 1.61073 2.37051
1 1 6.65842 -0.17772 0.0745425
8 2 4.03962 0.782417 2.67935
3 1 4.59141 2.11429 2.78787
5 2 6.07874 2.2437 3.03435
