
     Program PWSCF v.6.7MaX starts on 21Jan2023 at 12:57: 3 

     This program is part of the open-source Quantum ESPRESSO suite
     for quantum simulation of materials; please cite
         "P. Giannozzi et al., J. Phys.:Condens. Matter 21 395502 (2009);
         "P. Giannozzi et al., J. Phys.:Condens. Matter 29 465901 (2017);
          URL http://www.quantum-espresso.org", 
     in publications or presentations arising from this work. More details at
     http://www.quantum-espresso.org/quote

     Parallel version (MPI), running on    24 processors

     MPI processes distributed on     1 nodes
     R & G space division:  proc/nbgrp/npool/nimage =      24
     Reading input from NaFePO4_olivine-00.in

     Current dimensions of program PWSCF are:
     Max number of different atomic species (ntypx) = 10
     Max number of k-points (npk) =  40000
     Max angular momentum in pseudopotentials (lmaxx) =  3
     Message from routine read_pp_mesh:
     mesh size missing, using the one in header
     file Fe.pbe-spn-kjpaw_psl.0.2.1.UPF: wavefunction(s)  3D renormalized
     file O.pbe-n-kjpaw_psl.0.1.UPF: wavefunction(s)  2P renormalized

     Subspace diagonalization in iterative solution of the eigenvalue problem:
     a serial algorithm will be used

     Message from routine setup:
     using ibrav=0 with symmetry is DISCOURAGED, use correct ibrav instead

     Parallelization info
     --------------------
     sticks:   dense  smooth     PW     G-vecs:    dense   smooth      PW
     Min         827     306     82                53951    12161    1706
     Max         828     309     83                53954    12162    1709
     Sum       19863    7371   1983              1294859   291873   40977



     bravais-lattice index     =            0
     lattice parameter (alat)  =      19.6651  a.u.
     unit-cell volume          =    2160.3578 (a.u.)^3
     number of atoms/cell      =           28
     number of atomic types    =            4
     number of electrons       =       216.00
     number of Kohn-Sham states=          130
     kinetic-energy cutoff     =     100.0000  Ry
     charge density cutoff     =    1080.0000  Ry
     scf convergence threshold =      2.0E-10
     mixing beta               =       0.4000
     number of iterations used =            8  plain     mixing
     Exchange-correlation= PBE
                           (   1   4   3   4   0   0   0)

     celldm(1)=  19.665057  celldm(2)=   0.000000  celldm(3)=   0.000000
     celldm(4)=   0.000000  celldm(5)=   0.000000  celldm(6)=   0.000000

     crystal axes: (cart. coord. in units of alat)
               a(1) = (   1.000000   0.000000   0.000000 )  
               a(2) = (   0.000000   0.597590   0.000000 )  
               a(3) = (   0.000000   0.000000   0.475375 )  

     reciprocal axes: (cart. coord. in units 2 pi/alat)
               b(1) = (  1.000000  0.000000  0.000000 )  
               b(2) = (  0.000000  1.673388  0.000000 )  
               b(3) = (  0.000000  0.000000  2.103600 )  


     PseudoPot. # 1 for Fe read from file:
     /opt/QEpot/SSSP_precision_pseudos/Fe.pbe-spn-kjpaw_psl.0.2.1.UPF
     MD5 check sum: e86618425769142926afa95317d90200
     Pseudo is Projector augmented-wave + core cor, Zval = 16.0
     Generated using "atomic" code by A. Dal Corso  v.5.0.99 svn rev. 10869
     Shape of augmentation charge: PSQ
     Using radial grid of 1191 points,  6 beta functions with: 
                l(1) =   0
                l(2) =   0
                l(3) =   1
                l(4) =   1
                l(5) =   2
                l(6) =   2
     Q(r) pseudized with 0 coefficients 


     PseudoPot. # 2 for Na read from file:
     /opt/QEpot/SSSP_precision_pseudos/Na_ONCV_PBE-1.0.oncvpsp.upf
     MD5 check sum: 24a298df0a6742ae313db96548fdb2a4
     Pseudo is Norm-conserving, Zval =  9.0
     Generated using ONCVPSP code by D. R. Hamann
     Using radial grid of 1992 points,  4 beta functions with: 
                l(1) =   0
                l(2) =   0
                l(3) =   1
                l(4) =   1

     PseudoPot. # 3 for O  read from file:
     /opt/QEpot/SSSP_precision_pseudos/O.pbe-n-kjpaw_psl.0.1.UPF
     MD5 check sum: 0234752ac141de4415c5fc33072bef88
     Pseudo is Projector augmented-wave + core cor, Zval =  6.0
     Generated using "atomic" code by A. Dal Corso  v.5.0.99 svn rev. 10869
     Shape of augmentation charge: BESSEL
     Using radial grid of 1095 points,  4 beta functions with: 
                l(1) =   0
                l(2) =   0
                l(3) =   1
                l(4) =   1
     Q(r) pseudized with 0 coefficients 


     PseudoPot. # 4 for P  read from file:
     /opt/QEpot/SSSP_precision_pseudos/P.pbe-n-rrkjus_psl.1.0.0.UPF
     MD5 check sum: 8b930f418f0a4573dca56cd030ffe088
     Pseudo is Ultrasoft + core correction, Zval =  5.0
     Generated using "atomic" code by A. Dal Corso  v.5.1
     Using radial grid of 1147 points,  6 beta functions with: 
                l(1) =   0
                l(2) =   0
                l(3) =   1
                l(4) =   1
                l(5) =   2
                l(6) =   2
     Q(r) pseudized with 0 coefficients 


     atomic species   valence    mass     pseudopotential
        Fe            16.00    55.84500     Fe( 1.00)
        Na             9.00    22.98977     Na( 1.00)
        O              6.00    15.99940     O ( 1.00)
        P              5.00    30.97376     P ( 1.00)

     Starting magnetic structure 
     atomic species   magnetization
        Fe           0.312
        Na           0.000
        O            0.000
        P            0.000

      4 Sym. Ops., with inversion, found ( 2 have fractional translation)


                                    s                        frac. trans.

      isym =  1     identity                                     

 cryst.   s( 1) = (     1          0          0      )
                  (     0          1          0      )
                  (     0          0          1      )

 cart.    s( 1) = (  1.0000000  0.0000000  0.0000000 )
                  (  0.0000000  1.0000000  0.0000000 )
                  (  0.0000000  0.0000000  1.0000000 )


      isym =  2     180 deg rotation - cart. axis [0,1,0]        

 cryst.   s( 2) = (    -1          0          0      )    f =(  0.0000000 )
                  (     0          1          0      )       ( -0.4999976 )
                  (     0          0         -1      )       (  0.0000000 )

 cart.    s( 2) = ( -1.0000000  0.0000000  0.0000000 )    f =(  0.0000000 )
                  (  0.0000000  1.0000000  0.0000000 )       ( -0.2987935 )
                  (  0.0000000  0.0000000 -1.0000000 )       (  0.0000000 )


      isym =  3     inversion                                    

 cryst.   s( 3) = (    -1          0          0      )
                  (     0         -1          0      )
                  (     0          0         -1      )

 cart.    s( 3) = ( -1.0000000  0.0000000  0.0000000 )
                  (  0.0000000 -1.0000000  0.0000000 )
                  (  0.0000000  0.0000000 -1.0000000 )


      isym =  4     inv. 180 deg rotation - cart. axis [0,1,0]   

 cryst.   s( 4) = (     1          0          0      )    f =(  0.0000000 )
                  (     0         -1          0      )       (  0.4999976 )
                  (     0          0          1      )       (  0.0000000 )

 cart.    s( 4) = (  1.0000000  0.0000000  0.0000000 )    f =(  0.0000000 )
                  (  0.0000000 -1.0000000  0.0000000 )       (  0.2987935 )
                  (  0.0000000  0.0000000  1.0000000 )       (  0.0000000 )


   Cartesian axes

     site n.     atom                  positions (alat units)
         1           Na  tau(   1) = (   0.0000000   0.0000000   0.0000000  )
         2           Na  tau(   2) = (   0.5000029   0.0000000   0.2376892  )
         3           Na  tau(   3) = (   0.0000000   0.2987964   0.0000000  )
         4           Na  tau(   4) = (   0.5000029   0.2987964   0.2376892  )
         5           Fe  tau(   5) = (   0.2870216   0.4481947   0.4689037  )
         6           Fe  tau(   6) = (   0.2129813   0.1493982   0.2312146  )
         7           Fe  tau(   7) = (   0.7129842   0.1493982   0.0064746  )
         8           Fe  tau(   8) = (   0.7870245   0.4481947   0.2441638  )
         9           P   tau(   9) = (   0.1083406   0.4481947   0.2104073  )
        10           P   tau(  10) = (   0.3916623   0.1493982   0.4480964  )
        11           P   tau(  11) = (   0.8916651   0.1493982   0.2649711  )
        12           P   tau(  12) = (   0.6083435   0.4481947   0.0272819  )
        13           O   tau(  13) = (   0.1140117   0.4481947   0.3576837  )
        14           O   tau(  14) = (   0.3859912   0.1493982   0.1199945  )
        15           O   tau(  15) = (   0.8859941   0.1493982   0.1176947  )
        16           O   tau(  16) = (   0.6140146   0.4481947   0.3553839  )
        17           O   tau(  17) = (   0.4685137   0.4481947   0.0765924  )
        18           O   tau(  18) = (   0.0314892   0.1493982   0.3142816  )
        19           O   tau(  19) = (   0.5314921   0.1493982   0.3987859  )
        20           O   tau(  20) = (   0.9685166   0.4481947   0.1610967  )
        21           O   tau(  21) = (   0.1755910   0.5644933   0.1482287  )
        22           O   tau(  22) = (   0.3244118   0.0330995   0.3859179  )
        23           O   tau(  23) = (   0.8244147   0.2656969   0.3271497  )
        24           O   tau(  24) = (   0.6755939   0.3318959   0.0894605  )
        25           O   tau(  25) = (   0.8244147   0.0330995   0.3271497  )
        26           O   tau(  26) = (   0.6755939   0.5644933   0.0894605  )
        27           O   tau(  27) = (   0.1755910   0.3318959   0.1482287  )
        28           O   tau(  28) = (   0.3244118   0.2656969   0.3859179  )

   Crystallographic axes

     site n.     atom                  positions (cryst. coord.)
         1           Na  tau(   1) = (  0.0000000  0.0000000  0.0000000  )
         2           Na  tau(   2) = (  0.5000029  0.0000000  0.5000030  )
         3           Na  tau(   3) = (  0.0000000  0.5000024  0.0000000  )
         4           Na  tau(   4) = (  0.5000029  0.5000024  0.5000030  )
         5           Fe  tau(   5) = (  0.2870216  0.7500037  0.9863860  )
         6           Fe  tau(   6) = (  0.2129813  0.2500013  0.4863830  )
         7           Fe  tau(   7) = (  0.7129842  0.2500013  0.0136200  )
         8           Fe  tau(   8) = (  0.7870245  0.7500037  0.5136231  )
         9           P   tau(   9) = (  0.1083406  0.7500037  0.4426127  )
        10           P   tau(  10) = (  0.3916623  0.2500013  0.9426158  )
        11           P   tau(  11) = (  0.8916651  0.2500013  0.5573933  )
        12           P   tau(  12) = (  0.6083435  0.7500037  0.0573903  )
        13           O   tau(  13) = (  0.1140117  0.7500037  0.7524235  )
        14           O   tau(  14) = (  0.3859912  0.2500013  0.2524205  )
        15           O   tau(  15) = (  0.8859941  0.2500013  0.2475825  )
        16           O   tau(  16) = (  0.6140146  0.7500037  0.7475856  )
        17           O   tau(  17) = (  0.4685137  0.7500037  0.1611199  )
        18           O   tau(  18) = (  0.0314892  0.2500013  0.6611229  )
        19           O   tau(  19) = (  0.5314921  0.2500013  0.8388862  )
        20           O   tau(  20) = (  0.9685166  0.7500037  0.3388831  )
        21           O   tau(  21) = (  0.1755910  0.9446166  0.3118139  )
        22           O   tau(  22) = (  0.3244118  0.0553883  0.8118169  )
        23           O   tau(  23) = (  0.8244147  0.4446141  0.6881922  )
        24           O   tau(  24) = (  0.6755939  0.5553907  0.1881892  )
        25           O   tau(  25) = (  0.8244147  0.0553883  0.6881922  )
        26           O   tau(  26) = (  0.6755939  0.9446166  0.1881892  )
        27           O   tau(  27) = (  0.1755910  0.5553907  0.3118139  )
        28           O   tau(  28) = (  0.3244118  0.4446141  0.8118169  )

     number of k points=    92  Marzari-Vanderbilt smearing, width (Ry)=  0.0073
                       cart. coord. in units 2pi/alat
        k(    1) = (   0.0000000   0.0000000   0.0000000), wk =   0.0031746
        k(    2) = (   0.0000000   0.0000000   0.2337334), wk =   0.0063492
        k(    3) = (   0.0000000   0.0000000   0.4674667), wk =   0.0063492
        k(    4) = (   0.0000000   0.0000000   0.7012001), wk =   0.0063492
        k(    5) = (   0.0000000   0.0000000   0.9349334), wk =   0.0063492
        k(    6) = (   0.0000000   0.2390555   0.0000000), wk =   0.0063492
        k(    7) = (   0.0000000   0.2390555   0.2337334), wk =   0.0126984
        k(    8) = (   0.0000000   0.2390555   0.4674667), wk =   0.0126984
        k(    9) = (   0.0000000   0.2390555   0.7012001), wk =   0.0126984
        k(   10) = (   0.0000000   0.2390555   0.9349334), wk =   0.0126984
        k(   11) = (   0.0000000   0.4781110   0.0000000), wk =   0.0063492
        k(   12) = (   0.0000000   0.4781110   0.2337334), wk =   0.0126984
        k(   13) = (   0.0000000   0.4781110   0.4674667), wk =   0.0126984
        k(   14) = (   0.0000000   0.4781110   0.7012001), wk =   0.0126984
        k(   15) = (   0.0000000   0.4781110   0.9349334), wk =   0.0126984
        k(   16) = (   0.0000000   0.7171664   0.0000000), wk =   0.0063492
        k(   17) = (   0.0000000   0.7171664   0.2337334), wk =   0.0126984
        k(   18) = (   0.0000000   0.7171664   0.4674667), wk =   0.0126984
        k(   19) = (   0.0000000   0.7171664   0.7012001), wk =   0.0126984
        k(   20) = (   0.0000000   0.7171664   0.9349334), wk =   0.0126984
        k(   21) = (   0.2000000   0.0000000   0.0000000), wk =   0.0063492
        k(   22) = (   0.2000000   0.0000000   0.2337334), wk =   0.0063492
        k(   23) = (   0.2000000   0.0000000   0.4674667), wk =   0.0063492
        k(   24) = (   0.2000000   0.0000000   0.7012001), wk =   0.0063492
        k(   25) = (   0.2000000   0.0000000   0.9349334), wk =   0.0063492
        k(   26) = (   0.2000000   0.2390555   0.0000000), wk =   0.0126984
        k(   27) = (   0.2000000   0.2390555   0.2337334), wk =   0.0126984
        k(   28) = (   0.2000000   0.2390555   0.4674667), wk =   0.0126984
        k(   29) = (   0.2000000   0.2390555   0.7012001), wk =   0.0126984
        k(   30) = (   0.2000000   0.2390555   0.9349334), wk =   0.0126984
        k(   31) = (   0.2000000   0.4781110   0.0000000), wk =   0.0126984
        k(   32) = (   0.2000000   0.4781110   0.2337334), wk =   0.0126984
        k(   33) = (   0.2000000   0.4781110   0.4674667), wk =   0.0126984
        k(   34) = (   0.2000000   0.4781110   0.7012001), wk =   0.0126984
        k(   35) = (   0.2000000   0.4781110   0.9349334), wk =   0.0126984
        k(   36) = (   0.2000000   0.7171664   0.0000000), wk =   0.0126984
        k(   37) = (   0.2000000   0.7171664   0.2337334), wk =   0.0126984
        k(   38) = (   0.2000000   0.7171664   0.4674667), wk =   0.0126984
        k(   39) = (   0.2000000   0.7171664   0.7012001), wk =   0.0126984
        k(   40) = (   0.2000000   0.7171664   0.9349334), wk =   0.0126984
        k(   41) = (   0.4000000   0.0000000   0.0000000), wk =   0.0063492
        k(   42) = (   0.4000000   0.0000000   0.2337334), wk =   0.0063492
        k(   43) = (   0.4000000   0.0000000   0.4674667), wk =   0.0063492
        k(   44) = (   0.4000000   0.0000000   0.7012001), wk =   0.0063492
        k(   45) = (   0.4000000   0.0000000   0.9349334), wk =   0.0063492
        k(   46) = (   0.4000000   0.2390555   0.0000000), wk =   0.0126984
        k(   47) = (   0.4000000   0.2390555   0.2337334), wk =   0.0126984
        k(   48) = (   0.4000000   0.2390555   0.4674667), wk =   0.0126984
        k(   49) = (   0.4000000   0.2390555   0.7012001), wk =   0.0126984
        k(   50) = (   0.4000000   0.2390555   0.9349334), wk =   0.0126984
        k(   51) = (   0.4000000   0.4781110   0.0000000), wk =   0.0126984
        k(   52) = (   0.4000000   0.4781110   0.2337334), wk =   0.0126984
        k(   53) = (   0.4000000   0.4781110   0.4674667), wk =   0.0126984
        k(   54) = (   0.4000000   0.4781110   0.7012001), wk =   0.0126984
        k(   55) = (   0.4000000   0.4781110   0.9349334), wk =   0.0126984
        k(   56) = (   0.4000000   0.7171664   0.0000000), wk =   0.0126984
        k(   57) = (   0.4000000   0.7171664   0.2337334), wk =   0.0126984
        k(   58) = (   0.4000000   0.7171664   0.4674667), wk =   0.0126984
        k(   59) = (   0.4000000   0.7171664   0.7012001), wk =   0.0126984
        k(   60) = (   0.4000000   0.7171664   0.9349334), wk =   0.0126984
        k(   61) = (  -0.2000000   0.0000000   0.2337334), wk =   0.0063492
        k(   62) = (  -0.2000000   0.0000000   0.4674667), wk =   0.0063492
        k(   63) = (  -0.2000000   0.0000000   0.7012001), wk =   0.0063492
        k(   64) = (  -0.2000000   0.0000000   0.9349334), wk =   0.0063492
        k(   65) = (  -0.2000000  -0.2390555   0.2337334), wk =   0.0126984
        k(   66) = (  -0.2000000  -0.2390555   0.4674667), wk =   0.0126984
        k(   67) = (  -0.2000000  -0.2390555   0.7012001), wk =   0.0126984
        k(   68) = (  -0.2000000  -0.2390555   0.9349334), wk =   0.0126984
        k(   69) = (  -0.2000000  -0.4781110   0.2337334), wk =   0.0126984
        k(   70) = (  -0.2000000  -0.4781110   0.4674667), wk =   0.0126984
        k(   71) = (  -0.2000000  -0.4781110   0.7012001), wk =   0.0126984
        k(   72) = (  -0.2000000  -0.4781110   0.9349334), wk =   0.0126984
        k(   73) = (  -0.2000000  -0.7171664   0.2337334), wk =   0.0126984
        k(   74) = (  -0.2000000  -0.7171664   0.4674667), wk =   0.0126984
        k(   75) = (  -0.2000000  -0.7171664   0.7012001), wk =   0.0126984
        k(   76) = (  -0.2000000  -0.7171664   0.9349334), wk =   0.0126984
        k(   77) = (  -0.4000000   0.0000000   0.2337334), wk =   0.0063492
        k(   78) = (  -0.4000000   0.0000000   0.4674667), wk =   0.0063492
        k(   79) = (  -0.4000000   0.0000000   0.7012001), wk =   0.0063492
        k(   80) = (  -0.4000000   0.0000000   0.9349334), wk =   0.0063492
        k(   81) = (  -0.4000000  -0.2390555   0.2337334), wk =   0.0126984
        k(   82) = (  -0.4000000  -0.2390555   0.4674667), wk =   0.0126984
        k(   83) = (  -0.4000000  -0.2390555   0.7012001), wk =   0.0126984
        k(   84) = (  -0.4000000  -0.2390555   0.9349334), wk =   0.0126984
        k(   85) = (  -0.4000000  -0.4781110   0.2337334), wk =   0.0126984
        k(   86) = (  -0.4000000  -0.4781110   0.4674667), wk =   0.0126984
        k(   87) = (  -0.4000000  -0.4781110   0.7012001), wk =   0.0126984
        k(   88) = (  -0.4000000  -0.4781110   0.9349334), wk =   0.0126984
        k(   89) = (  -0.4000000  -0.7171664   0.2337334), wk =   0.0126984
        k(   90) = (  -0.4000000  -0.7171664   0.4674667), wk =   0.0126984
        k(   91) = (  -0.4000000  -0.7171664   0.7012001), wk =   0.0126984
        k(   92) = (  -0.4000000  -0.7171664   0.9349334), wk =   0.0126984

                       cryst. coord.
        k(    1) = (   0.0000000   0.0000000   0.0000000), wk =   0.0031746
        k(    2) = (   0.0000000   0.0000000   0.1111111), wk =   0.0063492
        k(    3) = (   0.0000000   0.0000000   0.2222222), wk =   0.0063492
        k(    4) = (   0.0000000   0.0000000   0.3333333), wk =   0.0063492
        k(    5) = (   0.0000000   0.0000000   0.4444444), wk =   0.0063492
        k(    6) = (   0.0000000   0.1428571   0.0000000), wk =   0.0063492
        k(    7) = (   0.0000000   0.1428571   0.1111111), wk =   0.0126984
        k(    8) = (   0.0000000   0.1428571   0.2222222), wk =   0.0126984
        k(    9) = (   0.0000000   0.1428571   0.3333333), wk =   0.0126984
        k(   10) = (   0.0000000   0.1428571   0.4444444), wk =   0.0126984
        k(   11) = (   0.0000000   0.2857143   0.0000000), wk =   0.0063492
        k(   12) = (   0.0000000   0.2857143   0.1111111), wk =   0.0126984
        k(   13) = (   0.0000000   0.2857143   0.2222222), wk =   0.0126984
        k(   14) = (   0.0000000   0.2857143   0.3333333), wk =   0.0126984
        k(   15) = (   0.0000000   0.2857143   0.4444444), wk =   0.0126984
        k(   16) = (   0.0000000   0.4285714   0.0000000), wk =   0.0063492
        k(   17) = (   0.0000000   0.4285714   0.1111111), wk =   0.0126984
        k(   18) = (   0.0000000   0.4285714   0.2222222), wk =   0.0126984
        k(   19) = (   0.0000000   0.4285714   0.3333333), wk =   0.0126984
        k(   20) = (   0.0000000   0.4285714   0.4444444), wk =   0.0126984
        k(   21) = (   0.2000000   0.0000000   0.0000000), wk =   0.0063492
        k(   22) = (   0.2000000   0.0000000   0.1111111), wk =   0.0063492
        k(   23) = (   0.2000000   0.0000000   0.2222222), wk =   0.0063492
        k(   24) = (   0.2000000   0.0000000   0.3333333), wk =   0.0063492
        k(   25) = (   0.2000000   0.0000000   0.4444444), wk =   0.0063492
        k(   26) = (   0.2000000   0.1428571   0.0000000), wk =   0.0126984
        k(   27) = (   0.2000000   0.1428571   0.1111111), wk =   0.0126984
        k(   28) = (   0.2000000   0.1428571   0.2222222), wk =   0.0126984
        k(   29) = (   0.2000000   0.1428571   0.3333333), wk =   0.0126984
        k(   30) = (   0.2000000   0.1428571   0.4444444), wk =   0.0126984
        k(   31) = (   0.2000000   0.2857143   0.0000000), wk =   0.0126984
        k(   32) = (   0.2000000   0.2857143   0.1111111), wk =   0.0126984
        k(   33) = (   0.2000000   0.2857143   0.2222222), wk =   0.0126984
        k(   34) = (   0.2000000   0.2857143   0.3333333), wk =   0.0126984
        k(   35) = (   0.2000000   0.2857143   0.4444444), wk =   0.0126984
        k(   36) = (   0.2000000   0.4285714   0.0000000), wk =   0.0126984
        k(   37) = (   0.2000000   0.4285714   0.1111111), wk =   0.0126984
        k(   38) = (   0.2000000   0.4285714   0.2222222), wk =   0.0126984
        k(   39) = (   0.2000000   0.4285714   0.3333333), wk =   0.0126984
        k(   40) = (   0.2000000   0.4285714   0.4444444), wk =   0.0126984
        k(   41) = (   0.4000000   0.0000000   0.0000000), wk =   0.0063492
        k(   42) = (   0.4000000   0.0000000   0.1111111), wk =   0.0063492
        k(   43) = (   0.4000000   0.0000000   0.2222222), wk =   0.0063492
        k(   44) = (   0.4000000   0.0000000   0.3333333), wk =   0.0063492
        k(   45) = (   0.4000000   0.0000000   0.4444444), wk =   0.0063492
        k(   46) = (   0.4000000   0.1428571   0.0000000), wk =   0.0126984
        k(   47) = (   0.4000000   0.1428571   0.1111111), wk =   0.0126984
        k(   48) = (   0.4000000   0.1428571   0.2222222), wk =   0.0126984
        k(   49) = (   0.4000000   0.1428571   0.3333333), wk =   0.0126984
        k(   50) = (   0.4000000   0.1428571   0.4444444), wk =   0.0126984
        k(   51) = (   0.4000000   0.2857143   0.0000000), wk =   0.0126984
        k(   52) = (   0.4000000   0.2857143   0.1111111), wk =   0.0126984
        k(   53) = (   0.4000000   0.2857143   0.2222222), wk =   0.0126984
        k(   54) = (   0.4000000   0.2857143   0.3333333), wk =   0.0126984
        k(   55) = (   0.4000000   0.2857143   0.4444444), wk =   0.0126984
        k(   56) = (   0.4000000   0.4285714   0.0000000), wk =   0.0126984
        k(   57) = (   0.4000000   0.4285714   0.1111111), wk =   0.0126984
        k(   58) = (   0.4000000   0.4285714   0.2222222), wk =   0.0126984
        k(   59) = (   0.4000000   0.4285714   0.3333333), wk =   0.0126984
        k(   60) = (   0.4000000   0.4285714   0.4444444), wk =   0.0126984
        k(   61) = (  -0.2000000   0.0000000   0.1111111), wk =   0.0063492
        k(   62) = (  -0.2000000   0.0000000   0.2222222), wk =   0.0063492
        k(   63) = (  -0.2000000   0.0000000   0.3333333), wk =   0.0063492
        k(   64) = (  -0.2000000   0.0000000   0.4444444), wk =   0.0063492
        k(   65) = (  -0.2000000  -0.1428571   0.1111111), wk =   0.0126984
        k(   66) = (  -0.2000000  -0.1428571   0.2222222), wk =   0.0126984
        k(   67) = (  -0.2000000  -0.1428571   0.3333333), wk =   0.0126984
        k(   68) = (  -0.2000000  -0.1428571   0.4444444), wk =   0.0126984
        k(   69) = (  -0.2000000  -0.2857143   0.1111111), wk =   0.0126984
        k(   70) = (  -0.2000000  -0.2857143   0.2222222), wk =   0.0126984
        k(   71) = (  -0.2000000  -0.2857143   0.3333333), wk =   0.0126984
        k(   72) = (  -0.2000000  -0.2857143   0.4444444), wk =   0.0126984
        k(   73) = (  -0.2000000  -0.4285714   0.1111111), wk =   0.0126984
        k(   74) = (  -0.2000000  -0.4285714   0.2222222), wk =   0.0126984
        k(   75) = (  -0.2000000  -0.4285714   0.3333333), wk =   0.0126984
        k(   76) = (  -0.2000000  -0.4285714   0.4444444), wk =   0.0126984
        k(   77) = (  -0.4000000   0.0000000   0.1111111), wk =   0.0063492
        k(   78) = (  -0.4000000   0.0000000   0.2222222), wk =   0.0063492
        k(   79) = (  -0.4000000   0.0000000   0.3333333), wk =   0.0063492
        k(   80) = (  -0.4000000   0.0000000   0.4444444), wk =   0.0063492
        k(   81) = (  -0.4000000  -0.1428571   0.1111111), wk =   0.0126984
        k(   82) = (  -0.4000000  -0.1428571   0.2222222), wk =   0.0126984
        k(   83) = (  -0.4000000  -0.1428571   0.3333333), wk =   0.0126984
        k(   84) = (  -0.4000000  -0.1428571   0.4444444), wk =   0.0126984
        k(   85) = (  -0.4000000  -0.2857143   0.1111111), wk =   0.0126984
        k(   86) = (  -0.4000000  -0.2857143   0.2222222), wk =   0.0126984
        k(   87) = (  -0.4000000  -0.2857143   0.3333333), wk =   0.0126984
        k(   88) = (  -0.4000000  -0.2857143   0.4444444), wk =   0.0126984
        k(   89) = (  -0.4000000  -0.4285714   0.1111111), wk =   0.0126984
        k(   90) = (  -0.4000000  -0.4285714   0.2222222), wk =   0.0126984
        k(   91) = (  -0.4000000  -0.4285714   0.3333333), wk =   0.0126984
        k(   92) = (  -0.4000000  -0.4285714   0.4444444), wk =   0.0126984

     Dense  grid:  1294859 G-vectors     FFT dimensions: ( 216, 128, 100)

     Smooth grid:   291873 G-vectors     FFT dimensions: ( 125,  80,  60)

     Dynamical RAM for                 wfc:       3.02 MB

     Dynamical RAM for     wfc (w. buffer):     557.80 MB

     Dynamical RAM for           str. fact:       3.29 MB

     Dynamical RAM for           local pot:       0.00 MB

     Dynamical RAM for          nlocal pot:       7.05 MB

     Dynamical RAM for                qrad:      10.54 MB

     Dynamical RAM for          rho,v,vnew:      11.27 MB

     Dynamical RAM for               rhoin:       3.76 MB

     Dynamical RAM for            rho*nmix:      26.34 MB

     Dynamical RAM for           G-vectors:       3.18 MB

     Dynamical RAM for          h,s,v(r/c):       3.09 MB

     Dynamical RAM for          <psi|beta>:       0.60 MB

     Dynamical RAM for                 psi:       6.03 MB

     Dynamical RAM for                hpsi:       6.03 MB

     Dynamical RAM for                spsi:       6.03 MB

     Dynamical RAM for      wfcinit/wfcrot:       7.58 MB

     Dynamical RAM for           addusdens:     167.12 MB

     Dynamical RAM for          addusforce:     191.95 MB

     Dynamical RAM for         addusstress:     166.71 MB

     Estimated static dynamical RAM per process >     633.68 MB

     Estimated max dynamical RAM per process >     825.63 MB

     Estimated total dynamical RAM >      19.35 GB

     Check: negative core charge=   -0.000003
     Generating pointlists ...
     new r_m :   0.0823 (alat units)  1.6191 (a.u.) for type    1
     new r_m :   0.0915 (alat units)  1.7987 (a.u.) for type    2
     new r_m :   0.0608 (alat units)  1.1955 (a.u.) for type    3
     new r_m :   0.0608 (alat units)  1.1955 (a.u.) for type    4

     Initial potential from superposition of free atoms

     starting charge  215.97252, renormalised to  216.00000
     Starting wfcs are  152 randomized atomic wfcs
     Checking if some PAW data can be deallocated... 
       PAW data deallocated on   22 nodes for type:  1
       PAW data deallocated on    8 nodes for type:  3

     total cpu time spent up to now is      912.4 secs

     Self-consistent Calculation

     iteration #  1     ecut=   100.00 Ry     beta= 0.40
     Davidson diagonalization with overlap
     ethr =  1.00E-02,  avg # of iterations =  3.4

     negative rho (up, down):  0.000E+00 4.083E-05

     total cpu time spent up to now is     3546.7 secs

     total energy              =   -2380.66180565 Ry
     estimated scf accuracy    <       5.72070569 Ry

     total magnetization       =    16.00 Bohr mag/cell
     absolute magnetization    =    16.01 Bohr mag/cell

     iteration #  2     ecut=   100.00 Ry     beta= 0.40
     Davidson diagonalization with overlap
     ethr =  2.65E-03,  avg # of iterations =  2.0

     negative rho (up, down):  0.000E+00 1.519E-04

     total cpu time spent up to now is     5950.3 secs

     total energy              =   -2382.01317992 Ry
     estimated scf accuracy    <       0.53202355 Ry

     total magnetization       =    16.00 Bohr mag/cell
     absolute magnetization    =    16.01 Bohr mag/cell

     iteration #  3     ecut=   100.00 Ry     beta= 0.40
     Davidson diagonalization with overlap
     ethr =  2.46E-04,  avg # of iterations =  8.9

     negative rho (up, down):  0.000E+00 1.762E-04

     total cpu time spent up to now is     8819.6 secs

     total energy              =   -2382.04454998 Ry
     estimated scf accuracy    <       3.60553841 Ry

     total magnetization       =    16.09 Bohr mag/cell
     absolute magnetization    =    16.13 Bohr mag/cell

     iteration #  4     ecut=   100.00 Ry     beta= 0.40
     Davidson diagonalization with overlap
     ethr =  2.46E-04,  avg # of iterations =  2.0

     negative rho (up, down):  0.000E+00 3.177E-04

     total cpu time spent up to now is    10876.8 secs

     total energy              =   -2382.08561352 Ry
     estimated scf accuracy    <       1.22243340 Ry

     total magnetization       =    16.00 Bohr mag/cell
     absolute magnetization    =    16.06 Bohr mag/cell

     iteration #  5     ecut=   100.00 Ry     beta= 0.40
     Davidson diagonalization with overlap
     ethr =  2.46E-04,  avg # of iterations =  1.5

     negative rho (up, down):  0.000E+00 4.720E-04

     total cpu time spent up to now is    12835.5 secs

     total energy              =   -2382.03683476 Ry
     estimated scf accuracy    <       2.23888153 Ry

     total magnetization       =    16.00 Bohr mag/cell
     absolute magnetization    =    16.06 Bohr mag/cell

     iteration #  6     ecut=   100.00 Ry     beta= 0.40
     Davidson diagonalization with overlap
     ethr =  2.46E-04,  avg # of iterations =  2.0

     negative rho (up, down):  0.000E+00 4.837E-04

     total cpu time spent up to now is    14851.8 secs

     total energy              =   -2382.15805508 Ry
     estimated scf accuracy    <       2.49721904 Ry

     total magnetization       =    16.00 Bohr mag/cell
     absolute magnetization    =    16.08 Bohr mag/cell

     iteration #  7     ecut=   100.00 Ry     beta= 0.40
     Davidson diagonalization with overlap
     ethr =  2.46E-04,  avg # of iterations =  1.0

     negative rho (up, down):  0.000E+00 4.928E-04

     total cpu time spent up to now is    16752.0 secs

     total energy              =   -2382.18504462 Ry
     estimated scf accuracy    <       0.12298334 Ry

     total magnetization       =    16.00 Bohr mag/cell
     absolute magnetization    =    16.07 Bohr mag/cell

     iteration #  8     ecut=   100.00 Ry     beta= 0.40
     Davidson diagonalization with overlap
     ethr =  5.69E-05,  avg # of iterations =  1.3

     negative rho (up, down):  0.000E+00 4.922E-04

     total cpu time spent up to now is    18669.5 secs

     total energy              =   -2382.19630822 Ry
     estimated scf accuracy    <       0.29353428 Ry

     total magnetization       =    16.00 Bohr mag/cell
     absolute magnetization    =    16.07 Bohr mag/cell

     iteration #  9     ecut=   100.00 Ry     beta= 0.40
     Davidson diagonalization with overlap
     ethr =  5.69E-05,  avg # of iterations =  1.0

     negative rho (up, down):  0.000E+00 4.860E-04

     total cpu time spent up to now is    20565.3 secs

     total energy              =   -2382.19255485 Ry
     estimated scf accuracy    <       0.30671184 Ry

     total magnetization       =    16.00 Bohr mag/cell
     absolute magnetization    =    16.07 Bohr mag/cell

     iteration # 10     ecut=   100.00 Ry     beta= 0.40
     Davidson diagonalization with overlap
     ethr =  5.69E-05,  avg # of iterations =  1.2

     negative rho (up, down):  0.000E+00 4.824E-04

     total cpu time spent up to now is    22481.1 secs

     total energy              =   -2382.19468198 Ry
     estimated scf accuracy    <       0.08596335 Ry

     total magnetization       =    16.00 Bohr mag/cell
     absolute magnetization    =    16.08 Bohr mag/cell

     iteration # 11     ecut=   100.00 Ry     beta= 0.40
     Davidson diagonalization with overlap
     ethr =  3.98E-05,  avg # of iterations =  1.2

     negative rho (up, down):  0.000E+00 4.779E-04

     total cpu time spent up to now is    24390.7 secs

     total energy              =   -2382.19873537 Ry
     estimated scf accuracy    <       0.06107020 Ry

     total magnetization       =    16.00 Bohr mag/cell
     absolute magnetization    =    16.08 Bohr mag/cell

     iteration # 12     ecut=   100.00 Ry     beta= 0.40
     Davidson diagonalization with overlap
     ethr =  2.83E-05,  avg # of iterations =  1.4

     negative rho (up, down):  0.000E+00 4.761E-04

     total cpu time spent up to now is    26309.9 secs

     total energy              =   -2382.20047493 Ry
     estimated scf accuracy    <       0.07865435 Ry

     total magnetization       =    16.00 Bohr mag/cell
     absolute magnetization    =    16.09 Bohr mag/cell

     iteration # 13     ecut=   100.00 Ry     beta= 0.40
     Davidson diagonalization with overlap
     ethr =  2.83E-05,  avg # of iterations =  1.0

     negative rho (up, down):  0.000E+00 4.745E-04

     total cpu time spent up to now is    28201.8 secs

     total energy              =   -2382.20174068 Ry
     estimated scf accuracy    <       0.08712772 Ry

     total magnetization       =    16.00 Bohr mag/cell
     absolute magnetization    =    16.09 Bohr mag/cell

     iteration # 14     ecut=   100.00 Ry     beta= 0.40
     Davidson diagonalization with overlap
     ethr =  2.83E-05,  avg # of iterations =  1.0

     negative rho (up, down):  0.000E+00 4.727E-04

     total cpu time spent up to now is    30096.8 secs

     total energy              =   -2382.20293399 Ry
     estimated scf accuracy    <       0.08102090 Ry

     total magnetization       =    16.00 Bohr mag/cell
     absolute magnetization    =    16.09 Bohr mag/cell

     iteration # 15     ecut=   100.00 Ry     beta= 0.40
     Davidson diagonalization with overlap
     ethr =  2.83E-05,  avg # of iterations =  1.0

     negative rho (up, down):  0.000E+00 4.492E-04

     total cpu time spent up to now is    31993.8 secs

     total energy              =   -2382.20656155 Ry
     estimated scf accuracy    <       0.07095705 Ry

     total magnetization       =    16.00 Bohr mag/cell
     absolute magnetization    =    16.09 Bohr mag/cell

     iteration # 16     ecut=   100.00 Ry     beta= 0.40
     Davidson diagonalization with overlap
     ethr =  2.83E-05,  avg # of iterations =  1.5

     negative rho (up, down):  0.000E+00 4.486E-04

     total cpu time spent up to now is    33958.7 secs

     total energy              =   -2382.20922641 Ry
     estimated scf accuracy    <       0.02161978 Ry

     total magnetization       =    16.00 Bohr mag/cell
     absolute magnetization    =    16.10 Bohr mag/cell

     iteration # 17     ecut=   100.00 Ry     beta= 0.40
     Davidson diagonalization with overlap
     c_bands:  3 eigenvalues not converged
     c_bands:  2 eigenvalues not converged
     c_bands:  1 eigenvalues not converged
     ethr =  1.00E-05,  avg # of iterations =  4.5

     negative rho (up, down):  0.000E+00 4.530E-04

     total cpu time spent up to now is    36079.6 secs

     total energy              =   -2382.20883931 Ry
     estimated scf accuracy    <       0.01670842 Ry

     total magnetization       =    16.00 Bohr mag/cell
     absolute magnetization    =    16.10 Bohr mag/cell

     iteration # 18     ecut=   100.00 Ry     beta= 0.40
     Davidson diagonalization with overlap
     ethr =  7.74E-06,  avg # of iterations =  1.5

     negative rho (up, down):  0.000E+00 4.585E-04

     total cpu time spent up to now is    37998.0 secs

     total energy              =   -2382.20762571 Ry
     estimated scf accuracy    <       0.01920782 Ry

     total magnetization       =    16.00 Bohr mag/cell
     absolute magnetization    =    16.10 Bohr mag/cell

     iteration # 19     ecut=   100.00 Ry     beta= 0.40
     Davidson diagonalization with overlap
     ethr =  7.74E-06,  avg # of iterations =  1.0

     negative rho (up, down):  0.000E+00 4.614E-04

     total cpu time spent up to now is    39882.9 secs

     total energy              =   -2382.20847884 Ry
     estimated scf accuracy    <       0.00176939 Ry

     total magnetization       =    16.00 Bohr mag/cell
     absolute magnetization    =    16.10 Bohr mag/cell

     iteration # 20     ecut=   100.00 Ry     beta= 0.40
     Davidson diagonalization with overlap
     c_bands:  1 eigenvalues not converged
     c_bands:  1 eigenvalues not converged
     c_bands:  1 eigenvalues not converged
     c_bands:  1 eigenvalues not converged
     c_bands:  1 eigenvalues not converged
     c_bands:  1 eigenvalues not converged
     c_bands:  1 eigenvalues not converged
     c_bands:  2 eigenvalues not converged
     c_bands:  1 eigenvalues not converged
     c_bands:  1 eigenvalues not converged
     c_bands:  1 eigenvalues not converged
     c_bands:  1 eigenvalues not converged
     c_bands:  1 eigenvalues not converged
     c_bands:  1 eigenvalues not converged
     ethr =  8.19E-07,  avg # of iterations = 10.4

     negative rho (up, down):  0.000E+00 4.611E-04

     total cpu time spent up to now is    42451.3 secs

     total energy              =   -2382.20828002 Ry
     estimated scf accuracy    <       0.01682712 Ry

     total magnetization       =    16.00 Bohr mag/cell
     absolute magnetization    =    16.10 Bohr mag/cell

     iteration # 21     ecut=   100.00 Ry     beta= 0.40
     Davidson diagonalization with overlap
     ethr =  8.19E-07,  avg # of iterations =  1.7

     negative rho (up, down):  0.000E+00 4.614E-04

     total cpu time spent up to now is    44412.4 secs

     total energy              =   -2382.20850781 Ry
     estimated scf accuracy    <       0.00111600 Ry

     total magnetization       =    16.00 Bohr mag/cell
     absolute magnetization    =    16.10 Bohr mag/cell

     iteration # 22     ecut=   100.00 Ry     beta= 0.40
     Davidson diagonalization with overlap
     ethr =  5.17E-07,  avg # of iterations =  1.0

     negative rho (up, down):  0.000E+00 4.620E-04

     total cpu time spent up to now is    46299.7 secs

     total energy              =   -2382.20857252 Ry
     estimated scf accuracy    <       0.00044738 Ry

     total magnetization       =    16.00 Bohr mag/cell
     absolute magnetization    =    16.10 Bohr mag/cell

     iteration # 23     ecut=   100.00 Ry     beta= 0.40
     Davidson diagonalization with overlap
     ethr =  2.07E-07,  avg # of iterations =  1.0

     negative rho (up, down):  0.000E+00 4.643E-04

     total cpu time spent up to now is    48191.9 secs

     total energy              =   -2382.20844217 Ry
     estimated scf accuracy    <       0.00459762 Ry

     total magnetization       =    16.00 Bohr mag/cell
     absolute magnetization    =    16.10 Bohr mag/cell

     iteration # 24     ecut=   100.00 Ry     beta= 0.40
     Davidson diagonalization with overlap
     ethr =  2.07E-07,  avg # of iterations =  2.0

     negative rho (up, down):  0.000E+00 4.625E-04

     total cpu time spent up to now is    50265.9 secs

     total energy              =   -2382.20854037 Ry
     estimated scf accuracy    <       0.00018354 Ry

     total magnetization       =    16.00 Bohr mag/cell
     absolute magnetization    =    16.09 Bohr mag/cell

     iteration # 25     ecut=   100.00 Ry     beta= 0.40
     Davidson diagonalization with overlap
     ethr =  8.50E-08,  avg # of iterations =  2.0

     negative rho (up, down):  0.000E+00 4.624E-04

     total cpu time spent up to now is    52331.4 secs

     total energy              =   -2382.20865304 Ry
     estimated scf accuracy    <       0.00254893 Ry

     total magnetization       =    16.00 Bohr mag/cell
     absolute magnetization    =    16.09 Bohr mag/cell

     iteration # 26     ecut=   100.00 Ry     beta= 0.40
     Davidson diagonalization with overlap
     ethr =  8.50E-08,  avg # of iterations =  1.0

     negative rho (up, down):  0.000E+00 4.639E-04

     total cpu time spent up to now is    54219.2 secs

     total energy              =   -2382.20862168 Ry
     estimated scf accuracy    <       0.00208524 Ry

     total magnetization       =    16.00 Bohr mag/cell
     absolute magnetization    =    16.09 Bohr mag/cell

     iteration # 27     ecut=   100.00 Ry     beta= 0.40
     Davidson diagonalization with overlap
     ethr =  8.50E-08,  avg # of iterations =  2.0

     negative rho (up, down):  0.000E+00 4.625E-04

     total cpu time spent up to now is    56255.8 secs

     total energy              =   -2382.20865311 Ry
     estimated scf accuracy    <       0.00007141 Ry

     total magnetization       =    16.00 Bohr mag/cell
     absolute magnetization    =    16.09 Bohr mag/cell

     iteration # 28     ecut=   100.00 Ry     beta= 0.40
     Davidson diagonalization with overlap
     ethr =  3.31E-08,  avg # of iterations =  2.0

     negative rho (up, down):  0.000E+00 4.660E-04

     total cpu time spent up to now is    58275.1 secs

     total energy              =   -2382.20872341 Ry
     estimated scf accuracy    <       0.00057850 Ry

     total magnetization       =    16.00 Bohr mag/cell
     absolute magnetization    =    16.09 Bohr mag/cell

     iteration # 29     ecut=   100.00 Ry     beta= 0.40
     Davidson diagonalization with overlap
     ethr =  3.31E-08,  avg # of iterations =  2.0

     negative rho (up, down):  0.000E+00 4.613E-04

     total cpu time spent up to now is    60409.2 secs

     total energy              =   -2382.20855625 Ry
     estimated scf accuracy    <       0.00242221 Ry

     total magnetization       =    16.00 Bohr mag/cell
     absolute magnetization    =    16.09 Bohr mag/cell

     iteration # 30     ecut=   100.00 Ry     beta= 0.40
     Davidson diagonalization with overlap
     ethr =  3.31E-08,  avg # of iterations =  2.0

     negative rho (up, down):  0.000E+00 4.600E-04

     total cpu time spent up to now is    62566.4 secs

     total energy              =   -2382.20865901 Ry
     estimated scf accuracy    <       0.00007695 Ry

     total magnetization       =    16.00 Bohr mag/cell
     absolute magnetization    =    16.09 Bohr mag/cell

     iteration # 31     ecut=   100.00 Ry     beta= 0.40
     Davidson diagonalization with overlap
     ethr =  3.31E-08,  avg # of iterations =  1.0

     negative rho (up, down):  0.000E+00 4.580E-04

     total cpu time spent up to now is    64458.6 secs

     total energy              =   -2382.20864737 Ry
     estimated scf accuracy    <       0.00007878 Ry

     total magnetization       =    16.00 Bohr mag/cell
     absolute magnetization    =    16.09 Bohr mag/cell

     iteration # 32     ecut=   100.00 Ry     beta= 0.40
     Davidson diagonalization with overlap
     ethr =  3.31E-08,  avg # of iterations =  1.0

     negative rho (up, down):  0.000E+00 4.579E-04

     total cpu time spent up to now is    66346.9 secs

     total energy              =   -2382.20863376 Ry
     estimated scf accuracy    <       0.00007368 Ry

     total magnetization       =    16.00 Bohr mag/cell
     absolute magnetization    =    16.09 Bohr mag/cell

     iteration # 33     ecut=   100.00 Ry     beta= 0.40
     Davidson diagonalization with overlap
     ethr =  3.31E-08,  avg # of iterations =  1.0

     negative rho (up, down):  0.000E+00 4.594E-04

     total cpu time spent up to now is    68233.6 secs

     total energy              =   -2382.20864416 Ry
     estimated scf accuracy    <       0.00006892 Ry

     total magnetization       =    16.00 Bohr mag/cell
     absolute magnetization    =    16.09 Bohr mag/cell

     iteration # 34     ecut=   100.00 Ry     beta= 0.40
     Davidson diagonalization with overlap
     ethr =  3.19E-08,  avg # of iterations =  1.5

     negative rho (up, down):  0.000E+00 4.603E-04

     total cpu time spent up to now is    70184.1 secs

     total energy              =   -2382.20866413 Ry
     estimated scf accuracy    <       0.00007218 Ry

     total magnetization       =    16.00 Bohr mag/cell
     absolute magnetization    =    16.09 Bohr mag/cell

     iteration # 35     ecut=   100.00 Ry     beta= 0.40
     Davidson diagonalization with overlap
     ethr =  3.19E-08,  avg # of iterations =  1.0

     negative rho (up, down):  0.000E+00 4.615E-04

     total cpu time spent up to now is    72072.8 secs

     total energy              =   -2382.20869405 Ry
     estimated scf accuracy    <       0.00007436 Ry

     total magnetization       =    16.00 Bohr mag/cell
     absolute magnetization    =    16.09 Bohr mag/cell

     iteration # 36     ecut=   100.00 Ry     beta= 0.40
     Davidson diagonalization with overlap
     ethr =  3.19E-08,  avg # of iterations =  2.0

     negative rho (up, down):  0.000E+00 4.683E-04

     total cpu time spent up to now is    74105.2 secs

     total energy              =   -2382.20858005 Ry
     estimated scf accuracy    <       0.00007438 Ry

     total magnetization       =    16.00 Bohr mag/cell
     absolute magnetization    =    16.09 Bohr mag/cell

     iteration # 37     ecut=   100.00 Ry     beta= 0.40
     Davidson diagonalization with overlap
     ethr =  3.19E-08,  avg # of iterations =  3.0

     negative rho (up, down):  0.000E+00 4.851E-04

     total cpu time spent up to now is    76602.0 secs

     total energy              =   -2382.20731629 Ry
     estimated scf accuracy    <       0.00006999 Ry

     total magnetization       =    16.00 Bohr mag/cell
     absolute magnetization    =    16.09 Bohr mag/cell

     iteration # 38     ecut=   100.00 Ry     beta= 0.40
     Davidson diagonalization with overlap
     ethr =  3.19E-08,  avg # of iterations =  4.5

     negative rho (up, down):  0.000E+00 4.833E-04

     total cpu time spent up to now is    79452.4 secs

     total energy              =   -2382.20902602 Ry
     estimated scf accuracy    <       0.00009584 Ry

     total magnetization       =    16.00 Bohr mag/cell
     absolute magnetization    =    16.08 Bohr mag/cell

     iteration # 39     ecut=   100.00 Ry     beta= 0.40
     Davidson diagonalization with overlap
     ethr =  3.19E-08,  avg # of iterations =  2.0

     negative rho (up, down):  0.000E+00 4.821E-04

     total cpu time spent up to now is    81492.9 secs

     total energy              =   -2382.20900459 Ry
     estimated scf accuracy    <       0.00011162 Ry

     total magnetization       =    16.00 Bohr mag/cell
     absolute magnetization    =    16.08 Bohr mag/cell

     iteration # 40     ecut=   100.00 Ry     beta= 0.40
     Davidson diagonalization with overlap
     ethr =  3.19E-08,  avg # of iterations =  2.4

     negative rho (up, down):  0.000E+00 4.883E-04

     total cpu time spent up to now is    83668.9 secs

     total energy              =   -2382.20885665 Ry
     estimated scf accuracy    <       0.00002632 Ry

     total magnetization       =    16.00 Bohr mag/cell
     absolute magnetization    =    16.09 Bohr mag/cell

     iteration # 41     ecut=   100.00 Ry     beta= 0.40
     Davidson diagonalization with overlap
     ethr =  1.22E-08,  avg # of iterations =  3.4

     negative rho (up, down):  0.000E+00 4.888E-04

     total cpu time spent up to now is    86237.7 secs

     total energy              =   -2382.20909671 Ry
     estimated scf accuracy    <       0.00011960 Ry

     total magnetization       =    16.00 Bohr mag/cell
     absolute magnetization    =    16.08 Bohr mag/cell

     iteration # 42     ecut=   100.00 Ry     beta= 0.40
     Davidson diagonalization with overlap
     ethr =  1.22E-08,  avg # of iterations =  2.0

     negative rho (up, down):  0.000E+00 4.899E-04

     total cpu time spent up to now is    88452.1 secs

     total energy              =   -2382.20913421 Ry
     estimated scf accuracy    <       0.00010948 Ry

     total magnetization       =    16.00 Bohr mag/cell
     absolute magnetization    =    16.08 Bohr mag/cell

     iteration # 43     ecut=   100.00 Ry     beta= 0.40
     Davidson diagonalization with overlap
     ethr =  1.22E-08,  avg # of iterations =  2.0

     negative rho (up, down):  0.000E+00 4.922E-04

     total cpu time spent up to now is    90539.7 secs

     total energy              =   -2382.20913332 Ry
     estimated scf accuracy    <       0.00006230 Ry

     total magnetization       =    16.00 Bohr mag/cell
     absolute magnetization    =    16.08 Bohr mag/cell

     iteration # 44     ecut=   100.00 Ry     beta= 0.40
     Davidson diagonalization with overlap
     ethr =  1.22E-08,  avg # of iterations =  2.0

     negative rho (up, down):  0.000E+00 4.920E-04

     total cpu time spent up to now is    92663.5 secs

     total energy              =   -2382.20915364 Ry
     estimated scf accuracy    <       0.00002305 Ry

     total magnetization       =    16.00 Bohr mag/cell
     absolute magnetization    =    16.08 Bohr mag/cell

     iteration # 45     ecut=   100.00 Ry     beta= 0.40
     Davidson diagonalization with overlap
     ethr =  1.07E-08,  avg # of iterations =  2.0

     negative rho (up, down):  0.000E+00 4.938E-04

     total cpu time spent up to now is    94765.9 secs

     total energy              =   -2382.20914154 Ry
     estimated scf accuracy    <       0.00000070 Ry

     total magnetization       =    16.00 Bohr mag/cell
     absolute magnetization    =    16.08 Bohr mag/cell

     iteration # 46     ecut=   100.00 Ry     beta= 0.40
     Davidson diagonalization with overlap
     ethr =  3.26E-10,  avg # of iterations =  5.5

     negative rho (up, down):  0.000E+00 4.927E-04

     total cpu time spent up to now is    98101.3 secs

     total energy              =   -2382.20915966 Ry
     estimated scf accuracy    <       0.00000309 Ry

     total magnetization       =    16.00 Bohr mag/cell
     absolute magnetization    =    16.08 Bohr mag/cell

     iteration # 47     ecut=   100.00 Ry     beta= 0.40
     Davidson diagonalization with overlap
     ethr =  3.26E-10,  avg # of iterations =  3.5

     negative rho (up, down):  0.000E+00 4.929E-04

     total cpu time spent up to now is   100673.7 secs

     total energy              =   -2382.20916564 Ry
     estimated scf accuracy    <       0.00000019 Ry

     total magnetization       =    16.00 Bohr mag/cell
     absolute magnetization    =    16.08 Bohr mag/cell

     iteration # 48     ecut=   100.00 Ry     beta= 0.40
     Davidson diagonalization with overlap
     ethr =  8.58E-11,  avg # of iterations =  3.1

     negative rho (up, down):  0.000E+00 4.931E-04

     total cpu time spent up to now is   103165.2 secs

     total energy              =   -2382.20916617 Ry
     estimated scf accuracy    <       0.00000047 Ry

     total magnetization       =    16.00 Bohr mag/cell
     absolute magnetization    =    16.08 Bohr mag/cell

     iteration # 49     ecut=   100.00 Ry     beta= 0.40
     Davidson diagonalization with overlap
     ethr =  8.58E-11,  avg # of iterations =  2.7

     negative rho (up, down):  0.000E+00 4.930E-04

     total cpu time spent up to now is   105596.6 secs

     total energy              =   -2382.20916665 Ry
     estimated scf accuracy    <       0.00000012 Ry

     total magnetization       =    16.00 Bohr mag/cell
     absolute magnetization    =    16.08 Bohr mag/cell

     iteration # 50     ecut=   100.00 Ry     beta= 0.40
     Davidson diagonalization with overlap
     ethr =  5.73E-11,  avg # of iterations =  3.0

     negative rho (up, down):  0.000E+00 4.932E-04

     total cpu time spent up to now is   108081.5 secs

     total energy              =   -2382.20916700 Ry
     estimated scf accuracy    <       0.00000004 Ry

     total magnetization       =    16.00 Bohr mag/cell
     absolute magnetization    =    16.08 Bohr mag/cell

     iteration # 51     ecut=   100.00 Ry     beta= 0.40
     Davidson diagonalization with overlap
     ethr =  1.83E-11,  avg # of iterations =  3.7

     negative rho (up, down):  0.000E+00 4.931E-04

     total cpu time spent up to now is   110603.8 secs

     total energy              =   -2382.20916722 Ry
     estimated scf accuracy    <       0.00000001 Ry

     total magnetization       =    16.00 Bohr mag/cell
     absolute magnetization    =    16.08 Bohr mag/cell

     iteration # 52     ecut=   100.00 Ry     beta= 0.40
     Davidson diagonalization with overlap
     ethr =  5.77E-12,  avg # of iterations =  3.8

     negative rho (up, down):  0.000E+00 4.932E-04

     total cpu time spent up to now is   113137.0 secs

     total energy              =   -2382.20916725 Ry
     estimated scf accuracy    <       0.00000002 Ry

     total magnetization       =    16.00 Bohr mag/cell
     absolute magnetization    =    16.08 Bohr mag/cell

     iteration # 53     ecut=   100.00 Ry     beta= 0.40
     Davidson diagonalization with overlap
     ethr =  5.77E-12,  avg # of iterations =  3.0

     negative rho (up, down):  0.000E+00 4.931E-04

     total cpu time spent up to now is   115574.7 secs

     total energy              =   -2382.20916728 Ry
     estimated scf accuracy    <          1.9E-09 Ry

     total magnetization       =    16.00 Bohr mag/cell
     absolute magnetization    =    16.08 Bohr mag/cell

     iteration # 54     ecut=   100.00 Ry     beta= 0.40
     Davidson diagonalization with overlap
     ethr =  8.74E-13,  avg # of iterations =  4.9

     negative rho (up, down):  0.000E+00 4.931E-04

     total cpu time spent up to now is   118601.7 secs

     total energy              =   -2382.20916731 Ry
     estimated scf accuracy    <          4.7E-10 Ry

     total magnetization       =    16.00 Bohr mag/cell
     absolute magnetization    =    16.08 Bohr mag/cell

     iteration # 55     ecut=   100.00 Ry     beta= 0.40
     Davidson diagonalization with overlap
     ethr =  2.19E-13,  avg # of iterations =  4.1

     negative rho (up, down):  0.000E+00 4.931E-04

     Magnetic moment per site:
     atom:    1    charge:    7.9641    magn:    0.0001    constr:    0.0000
     atom:    2    charge:    7.9641    magn:    0.0001    constr:    0.0000
     atom:    3    charge:    7.9641    magn:    0.0001    constr:    0.0000
     atom:    4    charge:    7.9641    magn:    0.0001    constr:    0.0000
     atom:    5    charge:   13.3609    magn:    3.3581    constr:    0.0000
     atom:    6    charge:   13.3609    magn:    3.3580    constr:    0.0000
     atom:    7    charge:   13.3609    magn:    3.3581    constr:    0.0000
     atom:    8    charge:   13.3609    magn:    3.3580    constr:    0.0000
     atom:    9    charge:    0.8683    magn:    0.0062    constr:    0.0000
     atom:   10    charge:    0.8683    magn:    0.0062    constr:    0.0000
     atom:   11    charge:    0.8683    magn:    0.0062    constr:    0.0000
     atom:   12    charge:    0.8683    magn:    0.0062    constr:    0.0000
     atom:   13    charge:    4.2658    magn:    0.0309    constr:    0.0000
     atom:   14    charge:    4.2658    magn:    0.0309    constr:    0.0000
     atom:   15    charge:    4.2658    magn:    0.0309    constr:    0.0000
     atom:   16    charge:    4.2659    magn:    0.0309    constr:    0.0000
     atom:   17    charge:    4.2703    magn:    0.0430    constr:    0.0000
     atom:   18    charge:    4.2703    magn:    0.0430    constr:    0.0000
     atom:   19    charge:    4.2702    magn:    0.0430    constr:    0.0000
     atom:   20    charge:    4.2703    magn:    0.0430    constr:    0.0000
     atom:   21    charge:    4.2618    magn:    0.0731    constr:    0.0000
     atom:   22    charge:    4.2619    magn:    0.0731    constr:    0.0000
     atom:   23    charge:    4.2619    magn:    0.0731    constr:    0.0000
     atom:   24    charge:    4.2619    magn:    0.0731    constr:    0.0000
     atom:   25    charge:    4.2619    magn:    0.0731    constr:    0.0000
     atom:   26    charge:    4.2618    magn:    0.0731    constr:    0.0000
     atom:   27    charge:    4.2619    magn:    0.0731    constr:    0.0000
     atom:   28    charge:    4.2619    magn:    0.0731    constr:    0.0000

     total cpu time spent up to now is   121367.3 secs

     End of self-consistent calculation

 ------ SPIN UP ------------


          k = 0.0000 0.0000 0.0000 ( 36463 PWs)   bands (ev):

   -81.0345 -81.0341 -81.0331 -81.0326 -47.9270 -47.9261 -47.9255 -47.9246
   -47.0058 -47.0056 -47.0045 -47.0038 -46.3302 -46.3294 -46.3286 -46.3279
   -42.9373 -42.9372 -42.9291 -42.9290 -15.2334 -15.2126 -15.0045 -14.9990
   -14.9541 -14.9514 -14.9463 -14.9425 -14.8892 -14.8890 -14.8634 -14.8631
   -14.7204 -14.5469 -14.2666 -14.1651 -11.9920 -11.9811 -11.9592 -11.9301
   -11.9291 -11.9194 -11.8243 -11.7698 -11.7672 -11.7330 -11.7245 -11.6861
    -2.0410  -1.6288  -1.4367  -1.4197  -0.4332  -0.0246   0.0407   0.1704
     0.3480   0.4440   0.7425   0.7755   0.7785   0.8160   0.8665   1.1730
     1.9931   2.1691   2.4433   2.5347   2.6743   2.7833   2.8352   2.8876
     2.9502   3.0282   3.0621   3.3161   3.3911   3.4579   3.5009   3.6121
     3.6581   3.6765   3.7240   3.7472   3.8783   3.9485   4.1972   4.2096
     4.2155   4.3285   4.4466   4.7348   4.8088   4.8562   5.1784   5.2843
     5.4176   5.4974   5.5765   5.7700   5.7973   5.8548   5.8929   5.9070
     6.0420   6.2550   6.4896   6.5483   6.6420   6.7081   6.7134   7.0211
     7.0438   7.0599   7.1793   7.2332  10.4121  12.3934  12.6657  13.0899
    13.5297  14.0013  14.3589  14.9973  15.2358  15.2843  15.4463  15.4593
    15.4748  15.4938

     occupation numbers 
     1.0000   1.0000   1.0000   1.0000   1.0000   1.0000   1.0000   1.0000
     1.0000   1.0000   1.0000   1.0000   1.0000   1.0000   1.0000   1.0000
     1.0000   1.0000   1.0000   1.0000   1.0000   1.0000   1.0000   1.0000
     1.0000   1.0000   1.0000   1.0000   1.0000   1.0000   1.0000   1.0000
     1.0000   1.0000   1.0000   1.0000   1.0000   1.0000   1.0000   1.0000
     1.0000   1.0000   1.0000   1.0000   1.0000   1.0000   1.0000   1.0000
     1.0000   1.0000   1.0000   1.0000   1.0000   1.0000   1.0000   1.0000
     1.0000   1.0000   1.0000   1.0000   1.0000   1.0000   1.0000   1.0000
     1.0000   1.0000   1.0000   1.0000   1.0000   1.0000   1.0000   1.0000
     1.0000   1.0000   1.0000   1.0000   1.0000   1.0000   1.0000   1.0000
     1.0000   1.0000   1.0000   1.0000   1.0000   1.0000   1.0000   1.0000
     1.0000   1.0000   1.0000   1.0000   1.0000   1.0000   1.0000   1.0000
     1.0000   1.0000   1.0000   1.0000   1.0000   1.0000   1.0000   1.0000
     1.0000   1.0000   1.0000   1.0000   1.0000   1.0000   1.0000   1.0000
     1.0000   1.0000   1.0000   1.0000   0.0000   0.0000   0.0000   0.0000
     0.0000   0.0000   0.0000   0.0000   0.0000   0.0000   0.0000   0.0000
     0.0000   0.0000

          k = 0.0000 0.0000 0.2337 ( 36493 PWs)   bands (ev):

   -81.0345 -81.0341 -81.0331 -81.0326 -47.9270 -47.9261 -47.9255 -47.9246
   -47.0058 -47.0056 -47.0045 -47.0038 -46.3301 -46.3294 -46.3286 -46.3279
   -42.9373 -42.9372 -42.9291 -42.9290 -15.2259 -15.2061 -15.0176 -15.0108
   -14.9659 -14.9541 -14.9530 -14.9516 -14.8893 -14.8891 -14.8635 -14.8633
   -14.6654 -14.5122 -14.2757 -14.1803 -11.9923 -11.9850 -11.9696 -11.9573
   -11.9257 -11.9106 -11.8272 -11.7880 -11.7736 -11.7272 -11.7199 -11.6877
    -2.0200  -1.6289  -1.4526  -1.4007  -0.3683  -0.0018   0.1028   0.2282
     0.3483   0.4620   0.7571   0.7723   0.7824   0.8051   0.8362   1.1536
     1.9916   2.1577   2.4478   2.4872   2.6834   2.7142   2.8254   2.8357
     2.8867   3.0245   3.0790   3.2711   3.3679   3.3893   3.5255   3.5627
     3.5799   3.6560   3.8175   3.8690   3.9462   3.9528   4.1283   4.1892
     4.2110   4.3677   4.4923   4.7547   4.8090   4.8846   5.1701   5.2661
     5.4072   5.5002   5.5464   5.7714   5.7973   5.8280   5.8592   5.8806
     6.0808   6.2737   6.5193   6.5866   6.6469   6.7238   6.7294   6.9970
     7.0116   7.0394   7.1877   7.2249  10.5641  12.4386  12.7561  13.0879
    13.5705  13.8986  14.5306  14.6879  15.0368  15.2094  15.2183  15.2724
    15.6013  15.6329

     occupation numbers 
     1.0000   1.0000   1.0000   1.0000   1.0000   1.0000   1.0000   1.0000
     1.0000   1.0000   1.0000   1.0000   1.0000   1.0000   1.0000   1.0000
     1.0000   1.0000   1.0000   1.0000   1.0000   1.0000   1.0000   1.0000
     1.0000   1.0000   1.0000   1.0000   1.0000   1.0000   1.0000   1.0000
     1.0000   1.0000   1.0000   1.0000   1.0000   1.0000   1.0000   1.0000
     1.0000   1.0000   1.0000   1.0000   1.0000   1.0000   1.0000   1.0000
     1.0000   1.0000   1.0000   1.0000   1.0000   1.0000   1.0000   1.0000
     1.0000   1.0000   1.0000   1.0000   1.0000   1.0000   1.0000   1.0000
     1.0000   1.0000   1.0000   1.0000   1.0000   1.0000   1.0000   1.0000
     1.0000   1.0000   1.0000   1.0000   1.0000   1.0000   1.0000   1.0000
     1.0000   1.0000   1.0000   1.0000   1.0000   1.0000   1.0000   1.0000
     1.0000   1.0000   1.0000   1.0000   1.0000   1.0000   1.0000   1.0000
     1.0000   1.0000   1.0000   1.0000   1.0000   1.0000   1.0000   1.0000
     1.0000   1.0000   1.0000   1.0000   1.0000   1.0000   1.0000   1.0000
     1.0000   1.0000   1.0000   1.0000   0.0000   0.0000   0.0000   0.0000
     0.0000   0.0000   0.0000   0.0000   0.0000   0.0000   0.0000   0.0000
     0.0000   0.0000

          k = 0.0000 0.0000 0.4675 ( 36542 PWs)   bands (ev):

   -81.0345 -81.0341 -81.0331 -81.0326 -47.9269 -47.9261 -47.9254 -47.9247
   -47.0058 -47.0056 -47.0045 -47.0038 -46.3301 -46.3294 -46.3286 -46.3279
   -42.9373 -42.9372 -42.9291 -42.9290 -15.2129 -15.1951 -15.0508 -15.0411
   -14.9728 -14.9593 -14.9542 -14.9521 -14.8895 -14.8893 -14.8637 -14.8635
   -14.5599 -14.4415 -14.2975 -14.2186 -12.0282 -11.9997 -11.9881 -11.9651
   -11.9215 -11.9153 -11.8357 -11.8221 -11.7919 -11.7456 -11.6939 -11.6807
    -1.9585  -1.6227  -1.4803  -1.3953  -0.1723   0.0730   0.2505   0.3550
     0.3773   0.5061   0.7542   0.7556   0.7701   0.8173   0.8331   1.0958
     1.9832   2.1290   2.3714   2.4606   2.5778   2.6964   2.7225   2.7322
     2.8138   2.9234   3.1190   3.2397   3.2825   3.3121   3.3222   3.5032
     3.5329   3.6092   3.9215   3.9573   4.0267   4.0869   4.1283   4.1799
     4.2518   4.4339   4.5170   4.8039   4.8233   4.9629   5.1413   5.2421
     5.3910   5.4866   5.5082   5.6821   5.7575   5.7712   5.8490   5.8794
     6.1819   6.3374   6.5698   6.6611   6.6613   6.7624   6.7749   6.9256
     6.9525   6.9782   7.1935   7.2037  10.9660  12.5646  12.9175  13.1564
    13.6916  13.8038  14.1769  14.6837  14.8159  14.8554  14.9822  15.1631
    15.4104  15.6031

     occupation numbers 
     1.0000   1.0000   1.0000   1.0000   1.0000   1.0000   1.0000   1.0000
     1.0000   1.0000   1.0000   1.0000   1.0000   1.0000   1.0000   1.0000
     1.0000   1.0000   1.0000   1.0000   1.0000   1.0000   1.0000   1.0000
     1.0000   1.0000   1.0000   1.0000   1.0000   1.0000   1.0000   1.0000
     1.0000   1.0000   1.0000   1.0000   1.0000   1.0000   1.0000   1.0000
     1.0000   1.0000   1.0000   1.0000   1.0000   1.0000   1.0000   1.0000
     1.0000   1.0000   1.0000   1.0000   1.0000   1.0000   1.0000   1.0000
     1.0000   1.0000   1.0000   1.0000   1.0000   1.0000   1.0000   1.0000
     1.0000   1.0000   1.0000   1.0000   1.0000   1.0000   1.0000   1.0000
     1.0000   1.0000   1.0000   1.0000   1.0000   1.0000   1.0000   1.0000
     1.0000   1.0000   1.0000   1.0000   1.0000   1.0000   1.0000   1.0000
     1.0000   1.0000   1.0000   1.0000   1.0000   1.0000   1.0000   1.0000
     1.0000   1.0000   1.0000   1.0000   1.0000   1.0000   1.0000   1.0000
     1.0000   1.0000   1.0000   1.0000   1.0000   1.0000   1.0000   1.0000
     1.0000   1.0000   1.0000   1.0000   0.0000   0.0000   0.0000   0.0000
     0.0000   0.0000   0.0000   0.0000   0.0000   0.0000   0.0000   0.0000
     0.0000   0.0000

          k = 0.0000 0.0000 0.7012 ( 36506 PWs)   bands (ev):

   -81.0345 -81.0341 -81.0331 -81.0326 -47.9269 -47.9262 -47.9253 -47.9248
   -47.0058 -47.0056 -47.0045 -47.0038 -46.3301 -46.3295 -46.3285 -46.3280
   -42.9373 -42.9372 -42.9291 -42.9290 -15.2130 -15.1988 -15.0593 -15.0549
   -14.9656 -14.9556 -14.9542 -14.9528 -14.8897 -14.8896 -14.8639 -14.8638
   -14.4675 -14.3939 -14.3107 -14.2543 -12.0712 -12.0425 -12.0049 -11.9641
   -11.9351 -11.8994 -11.8496 -11.8324 -11.8198 -11.7739 -11.6713 -11.6676
    -1.8622  -1.5996  -1.5334  -1.4334   0.1211   0.1993   0.3691   0.3818
     0.5473   0.5570   0.6430   0.6975   0.7855   0.9515   0.9615   1.0072
     1.9525   2.1082   2.2152   2.3995   2.4852   2.5509   2.6734   2.6812
     2.7571   2.8072   2.8340   3.1362   3.2490   3.2978   3.3358   3.4191
     3.5324   3.5560   3.8242   3.8380   4.1571   4.2277   4.2645   4.3038
     4.3259   4.5028   4.5739   4.7765   4.8217   5.0223   5.1265   5.3069
     5.3947   5.4173   5.5227   5.5733   5.6598   5.7259   5.8399   5.9044
     6.3247   6.4508   6.6085   6.6793   6.7222   6.7694   6.8106   6.8470
     6.8779   6.9245   7.1807   7.1866  11.5050  12.7617  12.8672  13.3937
    13.7237  13.7729  13.9554  14.4083  14.4149  14.8614  14.8974  15.0695
    15.1591  15.5642

     occupation numbers 
     1.0000   1.0000   1.0000   1.0000   1.0000   1.0000   1.0000   1.0000
     1.0000   1.0000   1.0000   1.0000   1.0000   1.0000   1.0000   1.0000
     1.0000   1.0000   1.0000   1.0000   1.0000   1.0000   1.0000   1.0000
     1.0000   1.0000   1.0000   1.0000   1.0000   1.0000   1.0000   1.0000
     1.0000   1.0000   1.0000   1.0000   1.0000   1.0000   1.0000   1.0000
     1.0000   1.0000   1.0000   1.0000   1.0000   1.0000   1.0000   1.0000
     1.0000   1.0000   1.0000   1.0000   1.0000   1.0000   1.0000   1.0000
     1.0000   1.0000   1.0000   1.0000   1.0000   1.0000   1.0000   1.0000
     1.0000   1.0000   1.0000   1.0000   1.0000   1.0000   1.0000   1.0000
     1.0000   1.0000   1.0000   1.0000   1.0000   1.0000   1.0000   1.0000
     1.0000   1.0000   1.0000   1.0000   1.0000   1.0000   1.0000   1.0000
     1.0000   1.0000   1.0000   1.0000   1.0000   1.0000   1.0000   1.0000
     1.0000   1.0000   1.0000   1.0000   1.0000   1.0000   1.0000   1.0000
     1.0000   1.0000   1.0000   1.0000   1.0000   1.0000   1.0000   1.0000
     1.0000   1.0000   1.0000   1.0000   0.0000   0.0000   0.0000   0.0000
     0.0000   0.0000   0.0000   0.0000   0.0000   0.0000   0.0000   0.0000
     0.0000   0.0000

          k = 0.0000 0.0000 0.9349 ( 36496 PWs)   bands (ev):

   -81.0345 -81.0341 -81.0331 -81.0326 -47.9268 -47.9263 -47.9253 -47.9249
   -47.0058 -47.0056 -47.0045 -47.0038 -46.3301 -46.3295 -46.3285 -46.3280
   -42.9373 -42.9372 -42.9291 -42.9290 -15.2189 -15.2134 -15.0515 -15.0508
   -14.9546 -14.9537 -14.9536 -14.9504 -14.8899 -14.8898 -14.8640 -14.8639
   -14.4251 -14.4020 -14.2890 -14.2662 -12.0930 -12.0793 -12.0128 -12.0017
   -11.9001 -11.8792 -11.8695 -11.8524 -11.8213 -11.8006 -11.6592 -11.6586
    -1.7435  -1.6244  -1.5564  -1.4971   0.3062   0.3815   0.4236   0.4399
     0.5307   0.5619   0.6297   0.6952   0.8318   0.9105   1.1125   1.1209
     1.9235   2.0214   2.1277   2.2303   2.4232   2.4722   2.5357   2.6142
     2.6843   2.7285   2.8607   2.9765   3.2747   3.2902   3.3576   3.3642
     3.5679   3.6141   3.6932   3.7132   4.2303   4.2733   4.2949   4.3401
     4.5187   4.6054   4.6909   4.7095   4.7543   4.9181   5.2274   5.3298
     5.4288   5.4622   5.4892   5.5468   5.5891   5.6136   5.8669   5.8954
     6.4917   6.5956   6.6442   6.6608   6.6770   6.7454   6.7493   6.7538
     6.9051   6.9269   7.1692   7.1740  12.0748  12.5743  13.0198  13.2801
    13.7727  13.7732  14.0250  14.1553  14.4002  14.7294  14.8645  14.9545
    15.1070  15.3003

     occupation numbers 
     1.0000   1.0000   1.0000   1.0000   1.0000   1.0000   1.0000   1.0000
     1.0000   1.0000   1.0000   1.0000   1.0000   1.0000   1.0000   1.0000
     1.0000   1.0000   1.0000   1.0000   1.0000   1.0000   1.0000   1.0000
     1.0000   1.0000   1.0000   1.0000   1.0000   1.0000   1.0000   1.0000
     1.0000   1.0000   1.0000   1.0000   1.0000   1.0000   1.0000   1.0000
     1.0000   1.0000   1.0000   1.0000   1.0000   1.0000   1.0000   1.0000
     1.0000   1.0000   1.0000   1.0000   1.0000   1.0000   1.0000   1.0000
     1.0000   1.0000   1.0000   1.0000   1.0000   1.0000   1.0000   1.0000
     1.0000   1.0000   1.0000   1.0000   1.0000   1.0000   1.0000   1.0000
     1.0000   1.0000   1.0000   1.0000   1.0000   1.0000   1.0000   1.0000
     1.0000   1.0000   1.0000   1.0000   1.0000   1.0000   1.0000   1.0000
     1.0000   1.0000   1.0000   1.0000   1.0000   1.0000   1.0000   1.0000
     1.0000   1.0000   1.0000   1.0000   1.0000   1.0000   1.0000   1.0000
     1.0000   1.0000   1.0000   1.0000   1.0000   1.0000   1.0000   1.0000
     1.0000   1.0000   1.0000   1.0000   0.0000   0.0000   0.0000   0.0000
     0.0000   0.0000   0.0000   0.0000   0.0000   0.0000   0.0000   0.0000
     0.0000   0.0000

          k = 0.0000 0.2391 0.0000 ( 36485 PWs)   bands (ev):

   -81.0345 -81.0341 -81.0331 -81.0326 -47.9270 -47.9261 -47.9255 -47.9247
   -47.0058 -47.0056 -47.0045 -47.0038 -46.3301 -46.3294 -46.3286 -46.3279
   -42.9369 -42.9368 -42.9295 -42.9294 -15.2215 -15.2029 -15.0011 -14.9960
   -14.9626 -14.9623 -14.9424 -14.9390 -14.9185 -14.9108 -14.8690 -14.8688
   -14.6696 -14.5187 -14.2731 -14.1872 -11.9952 -11.9756 -11.9520 -11.9491
   -11.9449 -11.9202 -11.8466 -11.7810 -11.7357 -11.7304 -11.7094 -11.6876
    -2.0069  -1.6046  -1.4621  -1.4121  -0.3903  -0.0074   0.0572   0.1545
     0.3934   0.4471   0.6862   0.7316   0.8198   0.8601   0.8969   1.1460
     2.0081   2.1725   2.4291   2.4862   2.5626   2.7584   2.7955   2.9197
     2.9294   2.9930   3.1738   3.3074   3.3279   3.3597   3.5380   3.6564
     3.6678   3.6928   3.6953   3.8040   3.9464   3.9909   4.0647   4.2312
     4.2595   4.3423   4.4260   4.7052   4.8171   4.8197   5.1218   5.3261
     5.4005   5.4195   5.5491   5.6420   5.7617   5.9275   5.9316   6.0138
     6.0264   6.2232   6.5755   6.5962   6.6376   6.6916   6.7113   6.8594
     6.8731   7.1981   7.2672   7.2673  10.5749  12.4811  12.7639  13.0539
    13.5991  14.0846  14.3130  14.8916  15.2276  15.2561  15.3744  15.4622
    15.5040  15.6140

     occupation numbers 
     1.0000   1.0000   1.0000   1.0000   1.0000   1.0000   1.0000   1.0000
     1.0000   1.0000   1.0000   1.0000   1.0000   1.0000   1.0000   1.0000
     1.0000   1.0000   1.0000   1.0000   1.0000   1.0000   1.0000   1.0000
     1.0000   1.0000   1.0000   1.0000   1.0000   1.0000   1.0000   1.0000
     1.0000   1.0000   1.0000   1.0000   1.0000   1.0000   1.0000   1.0000
     1.0000   1.0000   1.0000   1.0000   1.0000   1.0000   1.0000   1.0000
     1.0000   1.0000   1.0000   1.0000   1.0000   1.0000   1.0000   1.0000
     1.0000   1.0000   1.0000   1.0000   1.0000   1.0000   1.0000   1.0000
     1.0000   1.0000   1.0000   1.0000   1.0000   1.0000   1.0000   1.0000
     1.0000   1.0000   1.0000   1.0000   1.0000   1.0000   1.0000   1.0000
     1.0000   1.0000   1.0000   1.0000   1.0000   1.0000   1.0000   1.0000
     1.0000   1.0000   1.0000   1.0000   1.0000   1.0000   1.0000   1.0000
     1.0000   1.0000   1.0000   1.0000   1.0000   1.0000   1.0000   1.0000
     1.0000   1.0000   1.0000   1.0000   1.0000   1.0000   1.0000   1.0000
     1.0000   1.0000   1.0000   1.0000   0.0000   0.0000   0.0000   0.0000
     0.0000   0.0000   0.0000   0.0000   0.0000   0.0000   0.0000   0.0000
     0.0000   0.0000

          k = 0.0000 0.2391 0.2337 ( 36495 PWs)   bands (ev):

   -81.0345 -81.0341 -81.0331 -81.0326 -47.9270 -47.9261 -47.9254 -47.9247
   -47.0058 -47.0056 -47.0045 -47.0038 -46.3301 -46.3294 -46.3286 -46.3279
   -42.9369 -42.9368 -42.9295 -42.9294 -15.2143 -15.1965 -15.0160 -15.0088
   -14.9727 -14.9648 -14.9499 -14.9467 -14.9084 -14.9059 -14.8690 -14.8688
   -14.6273 -14.4895 -14.2811 -14.2000 -12.0017 -11.9861 -11.9714 -11.9475
   -11.9399 -11.9140 -11.8605 -11.7848 -11.7496 -11.7180 -11.7174 -11.6853
    -1.9862  -1.6044  -1.4657  -1.4029  -0.3274   0.0154   0.1174   0.2113
     0.3931   0.4647   0.6977   0.7454   0.8058   0.8532   0.8698   1.1274
     2.0057   2.1521   2.4154   2.4965   2.5136   2.7182   2.7484   2.8545
     2.8901   3.0626   3.1535   3.2406   3.3210   3.3479   3.5382   3.5820
     3.6503   3.6562   3.7681   3.8955   3.9865   4.0022   4.0282   4.2286
     4.2331   4.3769   4.4613   4.7153   4.8222   4.8449   5.1128   5.3048
     5.3910   5.4025   5.5513   5.6614   5.7674   5.8870   5.9165   5.9699
     6.0606   6.2368   6.6057   6.6327   6.6425   6.7078   6.7255   6.8323
     6.8558   7.1727   7.2602   7.2725  10.7212  12.5271  12.8579  13.0754
    13.6259  13.9631  14.5070  14.5965  15.1104  15.1396  15.2167  15.3981
    15.6211  15.6257

     occupation numbers 
     1.0000   1.0000   1.0000   1.0000   1.0000   1.0000   1.0000   1.0000
     1.0000   1.0000   1.0000   1.0000   1.0000   1.0000   1.0000   1.0000
     1.0000   1.0000   1.0000   1.0000   1.0000   1.0000   1.0000   1.0000
     1.0000   1.0000   1.0000   1.0000   1.0000   1.0000   1.0000   1.0000
     1.0000   1.0000   1.0000   1.0000   1.0000   1.0000   1.0000   1.0000
     1.0000   1.0000   1.0000   1.0000   1.0000   1.0000   1.0000   1.0000
     1.0000   1.0000   1.0000   1.0000   1.0000   1.0000   1.0000   1.0000
     1.0000   1.0000   1.0000   1.0000   1.0000   1.0000   1.0000   1.0000
     1.0000   1.0000   1.0000   1.0000   1.0000   1.0000   1.0000   1.0000
     1.0000   1.0000   1.0000   1.0000   1.0000   1.0000   1.0000   1.0000
     1.0000   1.0000   1.0000   1.0000   1.0000   1.0000   1.0000   1.0000
     1.0000   1.0000   1.0000   1.0000   1.0000   1.0000   1.0000   1.0000
     1.0000   1.0000   1.0000   1.0000   1.0000   1.0000   1.0000   1.0000
     1.0000   1.0000   1.0000   1.0000   1.0000   1.0000   1.0000   1.0000
     1.0000   1.0000   1.0000   1.0000   0.0000   0.0000   0.0000   0.0000
     0.0000   0.0000   0.0000   0.0000   0.0000   0.0000   0.0000   0.0000
     0.0000   0.0000

          k = 0.0000 0.2391 0.4675 ( 36500 PWs)   bands (ev):

   -81.0345 -81.0341 -81.0331 -81.0326 -47.9269 -47.9262 -47.9254 -47.9247
   -47.0058 -47.0056 -47.0045 -47.0038 -46.3301 -46.3294 -46.3286 -46.3279
   -42.9369 -42.9368 -42.9295 -42.9294 -15.2015 -15.1853 -15.0474 -15.0381
   -14.9754 -14.9662 -14.9520 -14.9503 -14.9032 -14.9025 -14.8696 -14.8693
   -14.5364 -14.4277 -14.3000 -14.2322 -12.0271 -12.0108 -12.0086 -11.9319
   -11.9285 -11.9258 -11.8813 -11.7983 -11.7732 -11.7418 -11.6965 -11.6765
    -1.9257  -1.5985  -1.4794  -1.4025  -0.1373   0.0875   0.2621   0.3407
     0.4157   0.5057   0.7219   0.7763   0.7795   0.8244   0.8550   1.0735
     1.9882   2.1110   2.3408   2.4206   2.5143   2.6232   2.6384   2.7493
     2.8744   3.0329   3.1211   3.1590   3.2820   3.3250   3.3574   3.4773
     3.5930   3.6291   3.8771   3.9159   4.0321   4.1172   4.1186   4.2032
     4.2807   4.4396   4.4785   4.7465   4.8466   4.9130   5.0851   5.2609
     5.3716   5.3745   5.5578   5.6781   5.7835   5.7975   5.8837   5.9152
     6.1365   6.2791   6.6520   6.6555   6.6985   6.7432   6.7669   6.7865
     6.8000   7.1181   7.2435   7.2731  11.1106  12.6540  13.0215  13.2018
    13.7274  13.8686  14.1245  14.7427  14.8245  14.8671  15.0238  15.1626
    15.3785  15.6356

     occupation numbers 
     1.0000   1.0000   1.0000   1.0000   1.0000   1.0000   1.0000   1.0000
     1.0000   1.0000   1.0000   1.0000   1.0000   1.0000   1.0000   1.0000
     1.0000   1.0000   1.0000   1.0000   1.0000   1.0000   1.0000   1.0000
     1.0000   1.0000   1.0000   1.0000   1.0000   1.0000   1.0000   1.0000
     1.0000   1.0000   1.0000   1.0000   1.0000   1.0000   1.0000   1.0000
     1.0000   1.0000   1.0000   1.0000   1.0000   1.0000   1.0000   1.0000
     1.0000   1.0000   1.0000   1.0000   1.0000   1.0000   1.0000   1.0000
     1.0000   1.0000   1.0000   1.0000   1.0000   1.0000   1.0000   1.0000
     1.0000   1.0000   1.0000   1.0000   1.0000   1.0000   1.0000   1.0000
     1.0000   1.0000   1.0000   1.0000   1.0000   1.0000   1.0000   1.0000
     1.0000   1.0000   1.0000   1.0000   1.0000   1.0000   1.0000   1.0000
     1.0000   1.0000   1.0000   1.0000   1.0000   1.0000   1.0000   1.0000
     1.0000   1.0000   1.0000   1.0000   1.0000   1.0000   1.0000   1.0000
     1.0000   1.0000   1.0000   1.0000   1.0000   1.0000   1.0000   1.0000
     1.0000   1.0000   1.0000   1.0000   0.0000   0.0000   0.0000   0.0000
     0.0000   0.0000   0.0000   0.0000   0.0000   0.0000   0.0000   0.0000
     0.0000   0.0000

          k = 0.0000 0.2391 0.7012 ( 36515 PWs)   bands (ev):

   -81.0345 -81.0341 -81.0331 -81.0326 -47.9269 -47.9262 -47.9253 -47.9248
   -47.0058 -47.0056 -47.0045 -47.0038 -46.3301 -46.3295 -46.3285 -46.3280
   -42.9369 -42.9368 -42.9295 -42.9294 -15.2008 -15.1878 -15.0534 -15.0494
   -14.9699 -14.9641 -14.9524 -14.9497 -14.9025 -14.9024 -14.8709 -14.8706
   -14.4518 -14.3849 -14.3109 -14.2614 -12.0702 -12.0492 -12.0229 -11.9731
   -11.9169 -11.9026 -11.8809 -11.8211 -11.7929 -11.7706 -11.6773 -11.6669
    -1.8318  -1.5783  -1.5187  -1.4393   0.1485   0.2046   0.3641   0.4161
     0.5473   0.5554   0.6806   0.6883   0.7972   0.9360   0.9574   1.0061
     1.9347   2.0886   2.1822   2.3038   2.4875   2.5498   2.5664   2.7056
     2.7758   2.8687   2.9243   3.0544   3.2555   3.2869   3.3659   3.4394
     3.5029   3.6153   3.8028   3.8217   4.1468   4.2384   4.2673   4.2846
     4.3489   4.5114   4.5281   4.7275   4.8646   4.9583   5.0745   5.2454
     5.3507   5.3706   5.5701   5.6542   5.7198   5.7956   5.8413   5.8951
     6.2511   6.3555   6.6459   6.6763   6.6872   6.7052   6.7587   6.7924
     6.8745   7.0568   7.2292   7.2623  11.6382  12.8504  12.9902  13.4793
    13.7310  13.8379  13.9590  14.4431  14.4800  14.8433  14.9128  15.0718
    15.1752  15.5480

     occupation numbers 
     1.0000   1.0000   1.0000   1.0000   1.0000   1.0000   1.0000   1.0000
     1.0000   1.0000   1.0000   1.0000   1.0000   1.0000   1.0000   1.0000
     1.0000   1.0000   1.0000   1.0000   1.0000   1.0000   1.0000   1.0000
     1.0000   1.0000   1.0000   1.0000   1.0000   1.0000   1.0000   1.0000
     1.0000   1.0000   1.0000   1.0000   1.0000   1.0000   1.0000   1.0000
     1.0000   1.0000   1.0000   1.0000   1.0000   1.0000   1.0000   1.0000
     1.0000   1.0000   1.0000   1.0000   1.0000   1.0000   1.0000   1.0000
     1.0000   1.0000   1.0000   1.0000   1.0000   1.0000   1.0000   1.0000
     1.0000   1.0000   1.0000   1.0000   1.0000   1.0000   1.0000   1.0000
     1.0000   1.0000   1.0000   1.0000   1.0000   1.0000   1.0000   1.0000
[...]
     atom   11 type  4   force =     0.00334167    0.00000000   -0.00207441
     atom   12 type  4   force =    -0.00341856    0.00000000   -0.00200806
     atom   13 type  3   force =     0.15960502    0.00000000   -1.48032001
     atom   14 type  3   force =    -0.15959082   -0.00000000   -1.48033460
     atom   15 type  3   force =    -0.15960502    0.00000000    1.48032001
     atom   16 type  3   force =     0.15959082    0.00000000    1.48033460
     atom   17 type  3   force =     1.20258268    0.00000000   -0.67238116
     atom   18 type  3   force =    -1.20260111    0.00000000   -0.67242946
     atom   19 type  3   force =    -1.20258268    0.00000000    0.67238116
     atom   20 type  3   force =     1.20260111    0.00000000    0.67242946
     atom   21 type  3   force =    -0.65351504   -1.01710725    0.71016616
     atom   22 type  3   force =     0.65354363    1.01711840    0.71015620
     atom   23 type  3   force =     0.65351504   -1.01710725   -0.71016616
     atom   24 type  3   force =    -0.65354363    1.01711840   -0.71015620
     atom   25 type  3   force =     0.65351504    1.01710725   -0.71016616
     atom   26 type  3   force =    -0.65354363   -1.01711840   -0.71015620
     atom   27 type  3   force =    -0.65351504    1.01710725    0.71016616
     atom   28 type  3   force =     0.65354363   -1.01711840    0.71015620
     The ionic contribution  to forces
     atom    1 type  2   force =     0.00042878   -0.00003838    0.00021117
     atom    2 type  2   force =    -0.00020288    0.00020432    0.00004724
     atom    3 type  2   force =     0.00053106    0.00014536    0.00026124
     atom    4 type  2   force =    -0.00010060   -0.00009734   -0.00000283
     atom    5 type  1   force =     3.09370716   -0.00063664   -1.29711728
     atom    6 type  1   force =    -3.09174171    0.00060171   -1.29672402
     atom    7 type  1   force =    -3.09415668    0.00060171    1.29718520
     atom    8 type  1   force =     3.09164086   -0.00063664    1.29657891
     atom    9 type  4   force =    -0.82400530   -0.00015149    1.93166257
     atom   10 type  4   force =     0.82499048    0.00013159    1.93101625
     atom   11 type  4   force =     0.82412949    0.00013159   -1.93179430
     atom   12 type  4   force =    -0.82509701   -0.00015149   -1.93102277
     atom   13 type  3   force =    -3.68251120   -0.00020234    1.47135183
     atom   14 type  3   force =     3.68328829    0.00015208    1.47189773
     atom   15 type  3   force =     3.68279375    0.00015208   -1.47123991
     atom   16 type  3   force =    -3.68336586   -0.00020234   -1.47184169
     atom   17 type  3   force =    -1.60353539   -0.00019781    2.69522848
     atom   18 type  3   force =     1.60474654    0.00014702    2.69535084
     atom   19 type  3   force =     1.60336922    0.00014702   -2.69531453
     atom   20 type  3   force =    -1.60435695   -0.00019781   -2.69535556
     atom   21 type  3   force =     0.71571823    2.54782430   -1.40569657
     atom   22 type  3   force =    -0.71508744   -2.54757304   -1.40597067
     atom   23 type  3   force =    -0.71594862    2.54807265    1.40531683
     atom   24 type  3   force =     0.71504182   -2.54797159    1.40582273
     atom   25 type  3   force =    -0.71585123   -2.54770689    1.40549492
     atom   26 type  3   force =     0.71496742    2.54765473    1.40598305
     atom   27 type  3   force =     0.71579263   -2.54814116   -1.40553626
     atom   28 type  3   force =    -0.71518484    2.54793880   -1.40579258
     The local contribution  to forces
     atom    1 type  2   force =    -0.00000000   -0.00000000    0.00000000
     atom    2 type  2   force =    -0.00462021   -0.00015045   -0.00228596
     atom    3 type  2   force =     0.00009975   -0.00229481    0.00004905
     atom    4 type  2   force =    -0.00452046   -0.00214436   -0.00233501
     atom    5 type  1   force =    -3.05308145   -0.00823735    1.24894552
     atom    6 type  1   force =     3.02951138   -0.00286517    1.24830159
     atom    7 type  1   force =     3.03179457   -0.00286516   -1.25972366
     atom    8 type  1   force =    -3.05094620   -0.00823734   -1.25937560
     atom    9 type  4   force =     0.80620136   -0.00001728   -1.90784541
     atom   10 type  4   force =    -0.80718511   -0.00000602   -1.90710095
     atom   11 type  4   force =    -0.80623736   -0.00000602    1.90791082
     atom   12 type  4   force =     0.80719020   -0.00001726    1.90724863
     atom   13 type  3   force =     3.52240056   -0.00191085    0.01412487
     atom   14 type  3   force =    -3.52770941   -0.00066465    0.01335961
     atom   15 type  3   force =    -3.52690502   -0.00066464   -0.01599306
     atom   16 type  3   force =     3.52295343   -0.00191087   -0.01573083
     atom   17 type  3   force =     0.36917679   -0.00192264   -2.02814937
     atom   18 type  3   force =    -0.37415530   -0.00066875   -2.02842139
     atom   19 type  3   force =    -0.37302261   -0.00066875    2.02597084
     atom   20 type  3   force =     0.37004999   -0.00192266    2.02572392
     atom   21 type  3   force =    -0.03768359   -1.48723450    0.68439419
     atom   22 type  3   force =     0.03210972    1.48522991    0.68477385
     atom   23 type  3   force =     0.03274498   -1.48659828   -0.68683868
     atom   24 type  3   force =    -0.03702424    1.48409579   -0.68692123
     atom   25 type  3   force =     0.03280722    1.48555427   -0.68675927
     atom   26 type  3   force =    -0.03683754   -1.48722782   -0.68715951
     atom   27 type  3   force =    -0.03787030    1.48410248    0.68415591
     atom   28 type  3   force =     0.03204748   -1.48627392    0.68485327
     The core correction contribution to forces
     atom    1 type  2   force =     0.00000000    0.00000000    0.00000000
     atom    2 type  2   force =     0.00000000    0.00000000    0.00000000
     atom    3 type  2   force =     0.00000000    0.00000000    0.00000000
     atom    4 type  2   force =     0.00000000    0.00000000    0.00000000
     atom    5 type  1   force =     0.00415882    0.00024853   -0.00121878
     atom    6 type  1   force =    -0.00341341    0.00008644   -0.00123426
     atom    7 type  1   force =    -0.00340691    0.00008645    0.00162838
     atom    8 type  1   force =     0.00415048    0.00024853    0.00161413
     atom    9 type  4   force =     0.00022071    0.00000559   -0.00258909
     atom   10 type  4   force =    -0.00021258    0.00000195   -0.00258252
     atom   11 type  4   force =    -0.00020574    0.00000195    0.00259742
     atom   12 type  4   force =     0.00022774    0.00000560    0.00259122
     atom   13 type  3   force =    -0.00205468   -0.00000104    0.01248872
     atom   14 type  3   force =     0.00205076   -0.00000036    0.01248880
     atom   15 type  3   force =     0.00205062   -0.00000036   -0.01249296
     atom   16 type  3   force =    -0.00205416   -0.00000104   -0.01249169
     atom   17 type  3   force =    -0.00944058   -0.00000101    0.00636448
     atom   18 type  3   force =     0.00943246   -0.00000035    0.00636355
     atom   19 type  3   force =     0.00943404   -0.00000035   -0.00636534
     atom   20 type  3   force =    -0.00944001   -0.00000101   -0.00636643
     atom   21 type  3   force =     0.00521239    0.00796598   -0.00619576
     atom   22 type  3   force =    -0.00521674   -0.00797021   -0.00619710
     atom   23 type  3   force =    -0.00521545    0.00796834    0.00619490
     atom   24 type  3   force =     0.00521300   -0.00797027    0.00619375
     atom   25 type  3   force =    -0.00521574   -0.00796980    0.00619503
     atom   26 type  3   force =     0.00521214    0.00796587    0.00619336
     atom   27 type  3   force =     0.00521325   -0.00797039   -0.00619615
     atom   28 type  3   force =    -0.00521646    0.00796874   -0.00619697
     The Hubbard contrib.    to forces
     atom    1 type  2   force =     0.00000000    0.00000000    0.00000000
     atom    2 type  2   force =     0.00000000    0.00000000    0.00000000
     atom    3 type  2   force =     0.00000000    0.00000000    0.00000000
     atom    4 type  2   force =     0.00000000    0.00000000    0.00000000
     atom    5 type  1   force =     0.00000000    0.00000000    0.00000000
     atom    6 type  1   force =     0.00000000    0.00000000    0.00000000
     atom    7 type  1   force =     0.00000000    0.00000000    0.00000000
     atom    8 type  1   force =     0.00000000    0.00000000    0.00000000
     atom    9 type  4   force =     0.00000000    0.00000000    0.00000000
     atom   10 type  4   force =     0.00000000    0.00000000    0.00000000
     atom   11 type  4   force =     0.00000000    0.00000000    0.00000000
     atom   12 type  4   force =     0.00000000    0.00000000    0.00000000
     atom   13 type  3   force =     0.00000000    0.00000000    0.00000000
     atom   14 type  3   force =     0.00000000    0.00000000    0.00000000
     atom   15 type  3   force =     0.00000000    0.00000000    0.00000000
     atom   16 type  3   force =     0.00000000    0.00000000    0.00000000
     atom   17 type  3   force =     0.00000000    0.00000000    0.00000000
     atom   18 type  3   force =     0.00000000    0.00000000    0.00000000
     atom   19 type  3   force =     0.00000000    0.00000000    0.00000000
     atom   20 type  3   force =     0.00000000    0.00000000    0.00000000
     atom   21 type  3   force =     0.00000000    0.00000000    0.00000000
     atom   22 type  3   force =     0.00000000    0.00000000    0.00000000
     atom   23 type  3   force =     0.00000000    0.00000000    0.00000000
     atom   24 type  3   force =     0.00000000    0.00000000    0.00000000
     atom   25 type  3   force =     0.00000000    0.00000000    0.00000000
     atom   26 type  3   force =     0.00000000    0.00000000    0.00000000
     atom   27 type  3   force =     0.00000000    0.00000000    0.00000000
     atom   28 type  3   force =     0.00000000    0.00000000    0.00000000
     The SCF correction term to forces
     atom    1 type  2   force =     0.00000000   -0.00000000    0.00000000
     atom    2 type  2   force =    -0.00000001   -0.00000000   -0.00000000
     atom    3 type  2   force =     0.00000000   -0.00000000    0.00000000
     atom    4 type  2   force =    -0.00000001   -0.00000000   -0.00000000
     atom    5 type  1   force =    -0.00000557   -0.00000001    0.00000108
     atom    6 type  1   force =    -0.00000394   -0.00000001    0.00000574
     atom    7 type  1   force =     0.00000554   -0.00000000   -0.00000110
     atom    8 type  1   force =     0.00000389   -0.00000002   -0.00000576
     atom    9 type  4   force =    -0.00000474   -0.00000000    0.00000031
     atom   10 type  4   force =    -0.00000249    0.00000000   -0.00000015
     atom   11 type  4   force =     0.00000474    0.00000000   -0.00000031
     atom   12 type  4   force =     0.00000249   -0.00000000    0.00000015
     atom   13 type  3   force =    -0.00000463   -0.00000000   -0.00000135
     atom   14 type  3   force =    -0.00000313   -0.00000000    0.00000266
     atom   15 type  3   force =     0.00000463   -0.00000000    0.00000135
     atom   16 type  3   force =     0.00000313   -0.00000000   -0.00000266
     atom   17 type  3   force =     0.00000396   -0.00000000    0.00000172
     atom   18 type  3   force =     0.00000331   -0.00000000   -0.00000123
     atom   19 type  3   force =    -0.00000396   -0.00000000   -0.00000172
     atom   20 type  3   force =    -0.00000332   -0.00000000    0.00000123
     atom   21 type  3   force =    -0.00000352    0.00000383    0.00000215
     atom   22 type  3   force =    -0.00000203    0.00000499   -0.00000298
     atom   23 type  3   force =     0.00000352    0.00000383   -0.00000216
     atom   24 type  3   force =     0.00000203    0.00000499    0.00000298
     atom   25 type  3   force =     0.00000352   -0.00000383   -0.00000215
     atom   26 type  3   force =     0.00000203   -0.00000499    0.00000298
     atom   27 type  3   force =    -0.00000352   -0.00000383    0.00000215
     atom   28 type  3   force =    -0.00000203   -0.00000499   -0.00000298

     Total force =     0.210742     Total SCF correction =     0.000025


     Computing stress (Cartesian axis) and pressure


     negative rho (up, down):  0.000E+00 4.931E-04
          total   stress  (Ry/bohr**3)                   (kbar)     P=       68.52
   0.00047158   0.00000000   0.00000004           69.37        0.00        0.01
   0.00000000   0.00055549   0.00000000            0.00       81.72        0.00
   0.00000004   0.00000000   0.00037033            0.01        0.00       54.48

     kinetic stress (kbar)  32305.26      0.00     -0.00
                                0.00  32188.96      0.00
                               -0.00      0.00  32265.12

     local   stress (kbar)  -4472.73     -0.08      0.04
                               -0.08  -5309.13     -0.00
                                0.04     -0.00  -1816.93

     nonloc. stress (kbar)  -9656.81      0.00      0.00
                                0.00  -9736.63      0.00
                                0.00      0.00  -9594.97

     hartree stress (kbar)  14859.58     -0.00     -0.03
                               -0.00  15240.66      0.00
                               -0.03      0.00  13529.44

     exc-cor stress (kbar)  -3656.71      0.00      0.00
                                0.00  -3662.18     -0.00
                                0.00     -0.00  -3652.71

     corecor stress (kbar)  -3121.19     -0.00     -0.00
                               -0.00  -3106.13      0.00
                               -0.00      0.00  -3129.44

     ewald   stress (kbar) -26188.04      0.08     -0.01
                                0.08 -25533.83      0.00
                               -0.01      0.00 -27546.03

     hubbard stress (kbar)      0.00      0.00      0.00
                                0.00      0.00      0.00
                                0.00      0.00      0.00

     DFT-D   stress (kbar)      0.00      0.00      0.00
                                0.00      0.00      0.00
                                0.00      0.00      0.00

     XDM     stress (kbar)      0.00      0.00      0.00
                                0.00      0.00      0.00
                                0.00      0.00      0.00

     dft-nl  stress (kbar)      0.00      0.00      0.00
                                0.00      0.00      0.00
                                0.00      0.00      0.00

     TS-vdW  stress (kbar)      0.00      0.00      0.00
                                0.00      0.00      0.00
                                0.00      0.00      0.00



     init_run     :    803.11s CPU    891.12s WALL (       1 calls)
     electrons    : 109600.87s CPU 120454.94s WALL (       1 calls)
     forces       :    122.70s CPU    139.10s WALL (       1 calls)
     stress       :    613.45s CPU    636.14s WALL (       1 calls)

     Called by init_run:
     wfcinit      :    789.19s CPU    874.42s WALL (       1 calls)
     wfcinit:atom :      0.64s CPU      0.73s WALL (     184 calls)
     wfcinit:wfcr :    785.29s CPU    869.97s WALL (     184 calls)
     potinit      :      6.27s CPU      7.29s WALL (       1 calls)
     hinit0       :      4.39s CPU      5.18s WALL (       1 calls)

     Called by electrons:
     c_bands      :  92186.02s CPU 101225.02s WALL (      55 calls)
     sum_band     :  16999.36s CPU  18755.49s WALL (      55 calls)
     v_of_rho     :    140.72s CPU    154.81s WALL (      56 calls)
     v_h          :     10.53s CPU     11.55s WALL (      56 calls)
     v_xc         :    134.84s CPU    148.41s WALL (      58 calls)
     newd         :    101.04s CPU    129.13s WALL (      56 calls)
     PAW_pot      :     53.87s CPU     60.22s WALL (      56 calls)
     mix_rho      :     95.64s CPU    103.64s WALL (      55 calls)

     Called by c_bands:
     init_us_2    :    158.33s CPU    177.51s WALL (   20792 calls)
     cegterg      :  91160.84s CPU 100063.92s WALL (   10120 calls)

     Called by sum_band:
     sum_band:wei :      0.58s CPU      0.70s WALL (      55 calls)
     sum_band:loo :  16774.20s CPU  18483.86s WALL (      55 calls)
     sum_band:buf :     48.08s CPU     51.45s WALL (   10120 calls)
     sum_band:ini :     72.40s CPU     82.16s WALL (   10120 calls)
     sum_band:cal :   1443.24s CPU   1589.82s WALL (   10120 calls)
     sum_band:bec :      8.75s CPU      9.28s WALL (   10120 calls)
     addusdens    :    176.29s CPU    219.15s WALL (      55 calls)
     addusd:skk   :      1.38s CPU      1.55s WALL (     165 calls)
     addusd:dgemm :     72.70s CPU    104.23s WALL (     330 calls)
     addusd:qvan2 :     99.44s CPU    109.87s WALL (     330 calls)

     Called by *egterg:
     cdiaghg      :   3576.51s CPU   3969.98s WALL (   34726 calls)
     cegterg:over :   4647.83s CPU   5082.41s WALL (   24606 calls)
     cegterg:upda :    767.28s CPU    855.99s WALL (   24606 calls)
     cegterg:last :   1627.92s CPU   1813.28s WALL (   17072 calls)
     h_psi        :  75487.87s CPU  82842.00s WALL (   34910 calls)
     s_psi        :   1612.51s CPU   1789.75s WALL (   34910 calls)
     g_psi        :     11.65s CPU     13.08s WALL (   24606 calls)

     Called by h_psi:
     h_psi:calbec :   3880.59s CPU   4262.02s WALL (   34910 calls)
     vloc_psi     :  69821.11s CPU  76577.50s WALL (   34910 calls)
     add_vuspsi   :   1709.98s CPU   1921.69s WALL (   34910 calls)

     General routines
     calbec       :   5515.49s CPU   6058.76s WALL (   45950 calls)
     fft          :    193.50s CPU    212.87s WALL (    1438 calls)
     ffts         :      3.79s CPU      4.33s WALL (     222 calls)
     fftw         :  84754.41s CPU  93058.77s WALL ( 7328518 calls)
     interpolate  :     17.01s CPU     19.01s WALL (     112 calls)

     Parallel routines
     fft_scatt_xy :    343.42s CPU    344.26s WALL ( 7330178 calls)
     fft_scatt_yz :  82518.80s CPU  90839.00s WALL ( 7330178 calls)

     PAW routines
     PAW_pot      :     53.87s CPU     60.22s WALL (      56 calls)
     PAW_symme    :      5.33s CPU      5.87s WALL (     111 calls)

     PWSCF        :   1d 6h52m CPU   1d 9h55m WALL


   This run was terminated on:  22:52:45  22Jan2023            

=------------------------------------------------------------------------------=
   JOB DONE.
=------------------------------------------------------------------------------=
Note: The following floating-point exceptions are signalling: IEEE_UNDERFLOW_FLAG IEEE_DENORMAL
Note: The following floating-point exceptions are signalling: IEEE_DENORMAL
Note: The following floating-point exceptions are signalling: IEEE_DENORMAL
Note: The following floating-point exceptions are signalling: IEEE_DENORMAL
Note: The following floating-point exceptions are signalling: IEEE_DENORMAL
Note: The following floating-point exceptions are signalling: IEEE_DENORMAL
Note: The following floating-point exceptions are signalling: IEEE_DENORMAL
Note: The following floating-point exceptions are signalling: IEEE_DENORMAL
Note: The following floating-point exceptions are signalling: IEEE_DENORMAL
Note: The following floating-point exceptions are signalling: IEEE_DENORMAL
Note: The following floating-point exceptions are signalling: IEEE_DENORMAL
Note: The following floating-point exceptions are signalling: IEEE_DENORMAL
Note: The following floating-point exceptions are signalling: IEEE_DENORMAL
Note: The following floating-point exceptions are signalling: IEEE_DENORMAL
Note: The following floating-point exceptions are signalling: IEEE_DENORMAL
Note: The following floating-point exceptions are signalling: IEEE_DENORMAL
Note: The following floating-point exceptions are signalling: IEEE_DENORMAL
Note: The following floating-point exceptions are signalling: IEEE_DENORMAL
