
     Program PWSCF v.6.7MaX starts on 29Jan2023 at 20:54:34 

     This program is part of the open-source Quantum ESPRESSO suite
     for quantum simulation of materials; please cite
         "P. Giannozzi et al., J. Phys.:Condens. Matter 21 395502 (2009);
         "P. Giannozzi et al., J. Phys.:Condens. Matter 29 465901 (2017);
          URL http://www.quantum-espresso.org", 
     in publications or presentations arising from this work. More details at
     http://www.quantum-espresso.org/quote

     Parallel version (MPI), running on    12 processors

     MPI processes distributed on     1 nodes
     R & G space division:  proc/nbgrp/npool/nimage =      12
     Reading input from scale_1da-02.in

     Current dimensions of program PWSCF are:
     Max number of different atomic species (ntypx) = 10
     Max number of k-points (npk) =  40000
     Max angular momentum in pseudopotentials (lmaxx) =  3
     Message from routine read_pp_mesh:
     mesh size missing, using the one in header
     file Fe.pbe-spn-kjpaw_psl.0.2.1.UPF: wavefunction(s)  3D renormalized
     file O.pbe-n-kjpaw_psl.0.1.UPF: wavefunction(s)  2P renormalized

     Subspace diagonalization in iterative solution of the eigenvalue problem:
     a serial algorithm will be used

     Message from routine setup:
     using ibrav=0 with symmetry is DISCOURAGED, use correct ibrav instead

     Parallelization info
     --------------------
     sticks:   dense  smooth     PW     G-vecs:    dense   smooth      PW
     Min        1629     602    163               106121    23921    3367
     Max        1630     604    164               106123    23922    3369
     Sum       19549    7233   1959              1273469   287059   40409



     bravais-lattice index     =            0
     lattice parameter (alat)  =      19.3373  a.u.
     unit-cell volume          =    2124.3518 (a.u.)^3
     number of atoms/cell      =           28
     number of atomic types    =            4
     number of electrons       =       216.00
     number of Kohn-Sham states=          130
     kinetic-energy cutoff     =     100.0000  Ry
     charge density cutoff     =    1080.0000  Ry
     scf convergence threshold =      2.0E-10
     mixing beta               =       0.4000
     number of iterations used =            8  plain     mixing
     Exchange-correlation= PBE
                           (   1   4   3   4   0   0   0)

     celldm(1)=  19.337306  celldm(2)=   0.000000  celldm(3)=   0.000000
     celldm(4)=   0.000000  celldm(5)=   0.000000  celldm(6)=   0.000000

     crystal axes: (cart. coord. in units of alat)
               a(1) = (   1.000000   0.000000   0.000000 )  
               a(2) = (   0.000000   0.607719   0.000000 )  
               a(3) = (   0.000000   0.000000   0.483433 )  

     reciprocal axes: (cart. coord. in units 2 pi/alat)
               b(1) = (  1.000000  0.000000  0.000000 )  
               b(2) = (  0.000000  1.645499  0.000000 )  
               b(3) = (  0.000000  0.000000  2.068540 )  


     PseudoPot. # 1 for Fe read from file:
     /opt/QEpot/SSSP_precision_pseudos/Fe.pbe-spn-kjpaw_psl.0.2.1.UPF
     MD5 check sum: e86618425769142926afa95317d90200
     Pseudo is Projector augmented-wave + core cor, Zval = 16.0
     Generated using "atomic" code by A. Dal Corso  v.5.0.99 svn rev. 10869
     Shape of augmentation charge: PSQ
     Using radial grid of 1191 points,  6 beta functions with: 
                l(1) =   0
                l(2) =   0
                l(3) =   1
                l(4) =   1
                l(5) =   2
                l(6) =   2
     Q(r) pseudized with 0 coefficients 


     PseudoPot. # 2 for Na read from file:
     /opt/QEpot/SSSP_precision_pseudos/Na_ONCV_PBE-1.0.oncvpsp.upf
     MD5 check sum: 24a298df0a6742ae313db96548fdb2a4
     Pseudo is Norm-conserving, Zval =  9.0
     Generated using ONCVPSP code by D. R. Hamann
     Using radial grid of 1992 points,  4 beta functions with: 
                l(1) =   0
                l(2) =   0
                l(3) =   1
                l(4) =   1

     PseudoPot. # 3 for O  read from file:
     /opt/QEpot/SSSP_precision_pseudos/O.pbe-n-kjpaw_psl.0.1.UPF
     MD5 check sum: 0234752ac141de4415c5fc33072bef88
     Pseudo is Projector augmented-wave + core cor, Zval =  6.0
     Generated using "atomic" code by A. Dal Corso  v.5.0.99 svn rev. 10869
     Shape of augmentation charge: BESSEL
     Using radial grid of 1095 points,  4 beta functions with: 
                l(1) =   0
                l(2) =   0
                l(3) =   1
                l(4) =   1
     Q(r) pseudized with 0 coefficients 


     PseudoPot. # 4 for P  read from file:
     /opt/QEpot/SSSP_precision_pseudos/P.pbe-n-rrkjus_psl.1.0.0.UPF
     MD5 check sum: 8b930f418f0a4573dca56cd030ffe088
     Pseudo is Ultrasoft + core correction, Zval =  5.0
     Generated using "atomic" code by A. Dal Corso  v.5.1
     Using radial grid of 1147 points,  6 beta functions with: 
                l(1) =   0
                l(2) =   0
                l(3) =   1
                l(4) =   1
                l(5) =   2
                l(6) =   2
     Q(r) pseudized with 0 coefficients 


     atomic species   valence    mass     pseudopotential
        Fe            16.00    55.84500     Fe( 1.00)
        Na             9.00    22.98977     Na( 1.00)
        O              6.00    15.99940     O ( 1.00)
        P              5.00    30.97376     P ( 1.00)

     Starting magnetic structure 
     atomic species   magnetization
        Fe           0.312
        Na           0.000
        O            0.000
        P            0.000

      4 Sym. Ops., with inversion, found ( 2 have fractional translation)


                                    s                        frac. trans.

      isym =  1     identity                                     

 cryst.   s( 1) = (     1          0          0      )
                  (     0          1          0      )
                  (     0          0          1      )

 cart.    s( 1) = (  1.0000000  0.0000000  0.0000000 )
                  (  0.0000000  1.0000000  0.0000000 )
                  (  0.0000000  0.0000000  1.0000000 )


      isym =  2     180 deg rotation - cart. axis [0,1,0]        

 cryst.   s( 2) = (    -1          0          0      )    f =(  0.0000000 )
                  (     0          1          0      )       ( -0.4999980 )
                  (     0          0         -1      )       (  0.0000000 )

 cart.    s( 2) = ( -1.0000000  0.0000000  0.0000000 )    f =(  0.0000000 )
                  (  0.0000000  1.0000000  0.0000000 )       ( -0.3038581 )
                  (  0.0000000  0.0000000 -1.0000000 )       (  0.0000000 )


      isym =  3     inversion                                    

 cryst.   s( 3) = (    -1          0          0      )
                  (     0         -1          0      )
                  (     0          0         -1      )

 cart.    s( 3) = ( -1.0000000  0.0000000  0.0000000 )
                  (  0.0000000 -1.0000000  0.0000000 )
                  (  0.0000000  0.0000000 -1.0000000 )


      isym =  4     inv. 180 deg rotation - cart. axis [0,1,0]   

 cryst.   s( 4) = (     1          0          0      )    f =(  0.0000000 )
                  (     0         -1          0      )       (  0.4999980 )
                  (     0          0          1      )       (  0.0000000 )

 cart.    s( 4) = (  1.0000000  0.0000000  0.0000000 )    f =(  0.0000000 )
                  (  0.0000000 -1.0000000  0.0000000 )       (  0.3038581 )
                  (  0.0000000  0.0000000  1.0000000 )       (  0.0000000 )


   Cartesian axes

     site n.     atom                  positions (alat units)
         1           Na  tau(   1) = (   0.0000000   0.0000000   0.0000000  )
         2           Na  tau(   2) = (   0.5000030   0.0000000   0.2417178  )
         3           Na  tau(   3) = (   0.0000000   0.3038605   0.0000000  )
         4           Na  tau(   4) = (   0.5000030   0.3038605   0.2417178  )
         5           Fe  tau(   5) = (   0.2870220   0.4557914   0.4768513  )
         6           Fe  tau(   6) = (   0.2129810   0.1519302   0.2351334  )
         7           Fe  tau(   7) = (   0.7129840   0.1519302   0.0065844  )
         8           Fe  tau(   8) = (   0.7870240   0.4557914   0.2483022  )
         9           P   tau(   9) = (   0.1083410   0.4557914   0.2139736  )
        10           P   tau(  10) = (   0.3916620   0.1519302   0.4556914  )
        11           P   tau(  11) = (   0.8916650   0.1519302   0.2694620  )
        12           P   tau(  12) = (   0.6083440   0.4557914   0.0277442  )
        13           O   tau(  13) = (   0.1140120   0.4557914   0.3637464  )
        14           O   tau(  14) = (   0.3859910   0.1519302   0.1220286  )
        15           O   tau(  15) = (   0.8859940   0.1519302   0.1196897  )
        16           O   tau(  16) = (   0.6140150   0.4557914   0.3614075  )
        17           O   tau(  17) = (   0.4685140   0.4557914   0.0778907  )
        18           O   tau(  18) = (   0.0314890   0.1519302   0.3196085  )
        19           O   tau(  19) = (   0.5314920   0.1519302   0.4055449  )
        20           O   tau(  20) = (   0.9685170   0.4557914   0.1638271  )
        21           O   tau(  21) = (   0.1755910   0.5740613   0.1507411  )
        22           O   tau(  22) = (   0.3244120   0.0336603   0.3924589  )
        23           O   tau(  23) = (   0.8244150   0.2702002   0.3326945  )
        24           O   tau(  24) = (   0.6755940   0.3375214   0.0909767  )
        25           O   tau(  25) = (   0.8244150   0.0336603   0.3326945  )
        26           O   tau(  26) = (   0.6755940   0.5740613   0.0909767  )
        27           O   tau(  27) = (   0.1755910   0.3375214   0.1507411  )
        28           O   tau(  28) = (   0.3244120   0.2702002   0.3924589  )

   Crystallographic axes

     site n.     atom                  positions (cryst. coord.)
         1           Na  tau(   1) = (  0.0000000  0.0000000  0.0000000  )
         2           Na  tau(   2) = (  0.5000030  0.0000000  0.5000030  )
         3           Na  tau(   3) = (  0.0000000  0.5000020  0.0000000  )
         4           Na  tau(   4) = (  0.5000030  0.5000020  0.5000030  )
         5           Fe  tau(   5) = (  0.2870220  0.7500040  0.9863860  )
         6           Fe  tau(   6) = (  0.2129810  0.2500010  0.4863830  )
         7           Fe  tau(   7) = (  0.7129840  0.2500010  0.0136200  )
         8           Fe  tau(   8) = (  0.7870240  0.7500040  0.5136230  )
         9           P   tau(   9) = (  0.1083410  0.7500040  0.4426130  )
        10           P   tau(  10) = (  0.3916620  0.2500010  0.9426160  )
        11           P   tau(  11) = (  0.8916650  0.2500010  0.5573930  )
        12           P   tau(  12) = (  0.6083440  0.7500040  0.0573900  )
        13           O   tau(  13) = (  0.1140120  0.7500040  0.7524240  )
        14           O   tau(  14) = (  0.3859910  0.2500010  0.2524210  )
        15           O   tau(  15) = (  0.8859940  0.2500010  0.2475830  )
        16           O   tau(  16) = (  0.6140150  0.7500040  0.7475860  )
        17           O   tau(  17) = (  0.4685140  0.7500040  0.1611200  )
        18           O   tau(  18) = (  0.0314890  0.2500010  0.6611230  )
        19           O   tau(  19) = (  0.5314920  0.2500010  0.8388860  )
        20           O   tau(  20) = (  0.9685170  0.7500040  0.3388830  )
        21           O   tau(  21) = (  0.1755910  0.9446170  0.3118140  )
        22           O   tau(  22) = (  0.3244120  0.0553880  0.8118170  )
        23           O   tau(  23) = (  0.8244150  0.4446140  0.6881920  )
        24           O   tau(  24) = (  0.6755940  0.5553910  0.1881890  )
        25           O   tau(  25) = (  0.8244150  0.0553880  0.6881920  )
        26           O   tau(  26) = (  0.6755940  0.9446170  0.1881890  )
        27           O   tau(  27) = (  0.1755910  0.5553910  0.3118140  )
        28           O   tau(  28) = (  0.3244120  0.4446140  0.8118170  )

     number of k points=    92  Marzari-Vanderbilt smearing, width (Ry)=  0.0073
                       cart. coord. in units 2pi/alat
        k(    1) = (   0.0000000   0.0000000   0.0000000), wk =   0.0031746
        k(    2) = (   0.0000000   0.0000000   0.2298378), wk =   0.0063492
        k(    3) = (   0.0000000   0.0000000   0.4596756), wk =   0.0063492
        k(    4) = (   0.0000000   0.0000000   0.6895134), wk =   0.0063492
        k(    5) = (   0.0000000   0.0000000   0.9193512), wk =   0.0063492
        k(    6) = (   0.0000000   0.2350712   0.0000000), wk =   0.0063492
        k(    7) = (   0.0000000   0.2350712   0.2298378), wk =   0.0126984
        k(    8) = (   0.0000000   0.2350712   0.4596756), wk =   0.0126984
        k(    9) = (   0.0000000   0.2350712   0.6895134), wk =   0.0126984
        k(   10) = (   0.0000000   0.2350712   0.9193512), wk =   0.0126984
        k(   11) = (   0.0000000   0.4701424   0.0000000), wk =   0.0063492
        k(   12) = (   0.0000000   0.4701424   0.2298378), wk =   0.0126984
        k(   13) = (   0.0000000   0.4701424   0.4596756), wk =   0.0126984
        k(   14) = (   0.0000000   0.4701424   0.6895134), wk =   0.0126984
        k(   15) = (   0.0000000   0.4701424   0.9193512), wk =   0.0126984
        k(   16) = (   0.0000000   0.7052137   0.0000000), wk =   0.0063492
        k(   17) = (   0.0000000   0.7052137   0.2298378), wk =   0.0126984
        k(   18) = (   0.0000000   0.7052137   0.4596756), wk =   0.0126984
        k(   19) = (   0.0000000   0.7052137   0.6895134), wk =   0.0126984
        k(   20) = (   0.0000000   0.7052137   0.9193512), wk =   0.0126984
        k(   21) = (   0.2000000   0.0000000   0.0000000), wk =   0.0063492
        k(   22) = (   0.2000000   0.0000000   0.2298378), wk =   0.0063492
        k(   23) = (   0.2000000   0.0000000   0.4596756), wk =   0.0063492
        k(   24) = (   0.2000000   0.0000000   0.6895134), wk =   0.0063492
        k(   25) = (   0.2000000   0.0000000   0.9193512), wk =   0.0063492
        k(   26) = (   0.2000000   0.2350712   0.0000000), wk =   0.0126984
        k(   27) = (   0.2000000   0.2350712   0.2298378), wk =   0.0126984
        k(   28) = (   0.2000000   0.2350712   0.4596756), wk =   0.0126984
        k(   29) = (   0.2000000   0.2350712   0.6895134), wk =   0.0126984
        k(   30) = (   0.2000000   0.2350712   0.9193512), wk =   0.0126984
        k(   31) = (   0.2000000   0.4701424   0.0000000), wk =   0.0126984
        k(   32) = (   0.2000000   0.4701424   0.2298378), wk =   0.0126984
        k(   33) = (   0.2000000   0.4701424   0.4596756), wk =   0.0126984
        k(   34) = (   0.2000000   0.4701424   0.6895134), wk =   0.0126984
        k(   35) = (   0.2000000   0.4701424   0.9193512), wk =   0.0126984
        k(   36) = (   0.2000000   0.7052137   0.0000000), wk =   0.0126984
        k(   37) = (   0.2000000   0.7052137   0.2298378), wk =   0.0126984
        k(   38) = (   0.2000000   0.7052137   0.4596756), wk =   0.0126984
        k(   39) = (   0.2000000   0.7052137   0.6895134), wk =   0.0126984
        k(   40) = (   0.2000000   0.7052137   0.9193512), wk =   0.0126984
        k(   41) = (   0.4000000   0.0000000   0.0000000), wk =   0.0063492
        k(   42) = (   0.4000000   0.0000000   0.2298378), wk =   0.0063492
        k(   43) = (   0.4000000   0.0000000   0.4596756), wk =   0.0063492
        k(   44) = (   0.4000000   0.0000000   0.6895134), wk =   0.0063492
        k(   45) = (   0.4000000   0.0000000   0.9193512), wk =   0.0063492
        k(   46) = (   0.4000000   0.2350712   0.0000000), wk =   0.0126984
        k(   47) = (   0.4000000   0.2350712   0.2298378), wk =   0.0126984
        k(   48) = (   0.4000000   0.2350712   0.4596756), wk =   0.0126984
        k(   49) = (   0.4000000   0.2350712   0.6895134), wk =   0.0126984
        k(   50) = (   0.4000000   0.2350712   0.9193512), wk =   0.0126984
        k(   51) = (   0.4000000   0.4701424   0.0000000), wk =   0.0126984
        k(   52) = (   0.4000000   0.4701424   0.2298378), wk =   0.0126984
        k(   53) = (   0.4000000   0.4701424   0.4596756), wk =   0.0126984
        k(   54) = (   0.4000000   0.4701424   0.6895134), wk =   0.0126984
        k(   55) = (   0.4000000   0.4701424   0.9193512), wk =   0.0126984
        k(   56) = (   0.4000000   0.7052137   0.0000000), wk =   0.0126984
        k(   57) = (   0.4000000   0.7052137   0.2298378), wk =   0.0126984
        k(   58) = (   0.4000000   0.7052137   0.4596756), wk =   0.0126984
        k(   59) = (   0.4000000   0.7052137   0.6895134), wk =   0.0126984
        k(   60) = (   0.4000000   0.7052137   0.9193512), wk =   0.0126984
        k(   61) = (  -0.2000000   0.0000000   0.2298378), wk =   0.0063492
        k(   62) = (  -0.2000000   0.0000000   0.4596756), wk =   0.0063492
        k(   63) = (  -0.2000000   0.0000000   0.6895134), wk =   0.0063492
        k(   64) = (  -0.2000000   0.0000000   0.9193512), wk =   0.0063492
        k(   65) = (  -0.2000000  -0.2350712   0.2298378), wk =   0.0126984
        k(   66) = (  -0.2000000  -0.2350712   0.4596756), wk =   0.0126984
        k(   67) = (  -0.2000000  -0.2350712   0.6895134), wk =   0.0126984
        k(   68) = (  -0.2000000  -0.2350712   0.9193512), wk =   0.0126984
        k(   69) = (  -0.2000000  -0.4701424   0.2298378), wk =   0.0126984
        k(   70) = (  -0.2000000  -0.4701424   0.4596756), wk =   0.0126984
        k(   71) = (  -0.2000000  -0.4701424   0.6895134), wk =   0.0126984
        k(   72) = (  -0.2000000  -0.4701424   0.9193512), wk =   0.0126984
        k(   73) = (  -0.2000000  -0.7052137   0.2298378), wk =   0.0126984
        k(   74) = (  -0.2000000  -0.7052137   0.4596756), wk =   0.0126984
        k(   75) = (  -0.2000000  -0.7052137   0.6895134), wk =   0.0126984
        k(   76) = (  -0.2000000  -0.7052137   0.9193512), wk =   0.0126984
        k(   77) = (  -0.4000000   0.0000000   0.2298378), wk =   0.0063492
        k(   78) = (  -0.4000000   0.0000000   0.4596756), wk =   0.0063492
        k(   79) = (  -0.4000000   0.0000000   0.6895134), wk =   0.0063492
        k(   80) = (  -0.4000000   0.0000000   0.9193512), wk =   0.0063492
        k(   81) = (  -0.4000000  -0.2350712   0.2298378), wk =   0.0126984
        k(   82) = (  -0.4000000  -0.2350712   0.4596756), wk =   0.0126984
        k(   83) = (  -0.4000000  -0.2350712   0.6895134), wk =   0.0126984
        k(   84) = (  -0.4000000  -0.2350712   0.9193512), wk =   0.0126984
        k(   85) = (  -0.4000000  -0.4701424   0.2298378), wk =   0.0126984
        k(   86) = (  -0.4000000  -0.4701424   0.4596756), wk =   0.0126984
        k(   87) = (  -0.4000000  -0.4701424   0.6895134), wk =   0.0126984
        k(   88) = (  -0.4000000  -0.4701424   0.9193512), wk =   0.0126984
        k(   89) = (  -0.4000000  -0.7052137   0.2298378), wk =   0.0126984
        k(   90) = (  -0.4000000  -0.7052137   0.4596756), wk =   0.0126984
        k(   91) = (  -0.4000000  -0.7052137   0.6895134), wk =   0.0126984
        k(   92) = (  -0.4000000  -0.7052137   0.9193512), wk =   0.0126984

                       cryst. coord.
        k(    1) = (   0.0000000   0.0000000   0.0000000), wk =   0.0031746
        k(    2) = (   0.0000000   0.0000000   0.1111111), wk =   0.0063492
        k(    3) = (   0.0000000   0.0000000   0.2222222), wk =   0.0063492
        k(    4) = (   0.0000000   0.0000000   0.3333333), wk =   0.0063492
        k(    5) = (   0.0000000   0.0000000   0.4444444), wk =   0.0063492
        k(    6) = (   0.0000000   0.1428571   0.0000000), wk =   0.0063492
        k(    7) = (   0.0000000   0.1428571   0.1111111), wk =   0.0126984
        k(    8) = (   0.0000000   0.1428571   0.2222222), wk =   0.0126984
        k(    9) = (   0.0000000   0.1428571   0.3333333), wk =   0.0126984
        k(   10) = (   0.0000000   0.1428571   0.4444444), wk =   0.0126984
        k(   11) = (   0.0000000   0.2857143   0.0000000), wk =   0.0063492
        k(   12) = (   0.0000000   0.2857143   0.1111111), wk =   0.0126984
        k(   13) = (   0.0000000   0.2857143   0.2222222), wk =   0.0126984
        k(   14) = (   0.0000000   0.2857143   0.3333333), wk =   0.0126984
        k(   15) = (   0.0000000   0.2857143   0.4444444), wk =   0.0126984
        k(   16) = (   0.0000000   0.4285714   0.0000000), wk =   0.0063492
        k(   17) = (   0.0000000   0.4285714   0.1111111), wk =   0.0126984
        k(   18) = (   0.0000000   0.4285714   0.2222222), wk =   0.0126984
        k(   19) = (   0.0000000   0.4285714   0.3333333), wk =   0.0126984
        k(   20) = (   0.0000000   0.4285714   0.4444444), wk =   0.0126984
        k(   21) = (   0.2000000   0.0000000   0.0000000), wk =   0.0063492
        k(   22) = (   0.2000000   0.0000000   0.1111111), wk =   0.0063492
        k(   23) = (   0.2000000   0.0000000   0.2222222), wk =   0.0063492
        k(   24) = (   0.2000000   0.0000000   0.3333333), wk =   0.0063492
        k(   25) = (   0.2000000   0.0000000   0.4444444), wk =   0.0063492
        k(   26) = (   0.2000000   0.1428571   0.0000000), wk =   0.0126984
        k(   27) = (   0.2000000   0.1428571   0.1111111), wk =   0.0126984
        k(   28) = (   0.2000000   0.1428571   0.2222222), wk =   0.0126984
        k(   29) = (   0.2000000   0.1428571   0.3333333), wk =   0.0126984
        k(   30) = (   0.2000000   0.1428571   0.4444444), wk =   0.0126984
        k(   31) = (   0.2000000   0.2857143   0.0000000), wk =   0.0126984
        k(   32) = (   0.2000000   0.2857143   0.1111111), wk =   0.0126984
        k(   33) = (   0.2000000   0.2857143   0.2222222), wk =   0.0126984
        k(   34) = (   0.2000000   0.2857143   0.3333333), wk =   0.0126984
        k(   35) = (   0.2000000   0.2857143   0.4444444), wk =   0.0126984
        k(   36) = (   0.2000000   0.4285714   0.0000000), wk =   0.0126984
        k(   37) = (   0.2000000   0.4285714   0.1111111), wk =   0.0126984
        k(   38) = (   0.2000000   0.4285714   0.2222222), wk =   0.0126984
        k(   39) = (   0.2000000   0.4285714   0.3333333), wk =   0.0126984
        k(   40) = (   0.2000000   0.4285714   0.4444444), wk =   0.0126984
        k(   41) = (   0.4000000   0.0000000   0.0000000), wk =   0.0063492
        k(   42) = (   0.4000000   0.0000000   0.1111111), wk =   0.0063492
        k(   43) = (   0.4000000   0.0000000   0.2222222), wk =   0.0063492
        k(   44) = (   0.4000000   0.0000000   0.3333333), wk =   0.0063492
        k(   45) = (   0.4000000   0.0000000   0.4444444), wk =   0.0063492
        k(   46) = (   0.4000000   0.1428571   0.0000000), wk =   0.0126984
        k(   47) = (   0.4000000   0.1428571   0.1111111), wk =   0.0126984
        k(   48) = (   0.4000000   0.1428571   0.2222222), wk =   0.0126984
        k(   49) = (   0.4000000   0.1428571   0.3333333), wk =   0.0126984
        k(   50) = (   0.4000000   0.1428571   0.4444444), wk =   0.0126984
        k(   51) = (   0.4000000   0.2857143   0.0000000), wk =   0.0126984
        k(   52) = (   0.4000000   0.2857143   0.1111111), wk =   0.0126984
        k(   53) = (   0.4000000   0.2857143   0.2222222), wk =   0.0126984
        k(   54) = (   0.4000000   0.2857143   0.3333333), wk =   0.0126984
        k(   55) = (   0.4000000   0.2857143   0.4444444), wk =   0.0126984
        k(   56) = (   0.4000000   0.4285714   0.0000000), wk =   0.0126984
        k(   57) = (   0.4000000   0.4285714   0.1111111), wk =   0.0126984
        k(   58) = (   0.4000000   0.4285714   0.2222222), wk =   0.0126984
        k(   59) = (   0.4000000   0.4285714   0.3333333), wk =   0.0126984
        k(   60) = (   0.4000000   0.4285714   0.4444444), wk =   0.0126984
        k(   61) = (  -0.2000000   0.0000000   0.1111111), wk =   0.0063492
        k(   62) = (  -0.2000000   0.0000000   0.2222222), wk =   0.0063492
        k(   63) = (  -0.2000000   0.0000000   0.3333333), wk =   0.0063492
        k(   64) = (  -0.2000000   0.0000000   0.4444444), wk =   0.0063492
        k(   65) = (  -0.2000000  -0.1428571   0.1111111), wk =   0.0126984
        k(   66) = (  -0.2000000  -0.1428571   0.2222222), wk =   0.0126984
        k(   67) = (  -0.2000000  -0.1428571   0.3333333), wk =   0.0126984
        k(   68) = (  -0.2000000  -0.1428571   0.4444444), wk =   0.0126984
        k(   69) = (  -0.2000000  -0.2857143   0.1111111), wk =   0.0126984
        k(   70) = (  -0.2000000  -0.2857143   0.2222222), wk =   0.0126984
        k(   71) = (  -0.2000000  -0.2857143   0.3333333), wk =   0.0126984
        k(   72) = (  -0.2000000  -0.2857143   0.4444444), wk =   0.0126984
        k(   73) = (  -0.2000000  -0.4285714   0.1111111), wk =   0.0126984
        k(   74) = (  -0.2000000  -0.4285714   0.2222222), wk =   0.0126984
        k(   75) = (  -0.2000000  -0.4285714   0.3333333), wk =   0.0126984
        k(   76) = (  -0.2000000  -0.4285714   0.4444444), wk =   0.0126984
        k(   77) = (  -0.4000000   0.0000000   0.1111111), wk =   0.0063492
        k(   78) = (  -0.4000000   0.0000000   0.2222222), wk =   0.0063492
        k(   79) = (  -0.4000000   0.0000000   0.3333333), wk =   0.0063492
        k(   80) = (  -0.4000000   0.0000000   0.4444444), wk =   0.0063492
        k(   81) = (  -0.4000000  -0.1428571   0.1111111), wk =   0.0126984
        k(   82) = (  -0.4000000  -0.1428571   0.2222222), wk =   0.0126984
        k(   83) = (  -0.4000000  -0.1428571   0.3333333), wk =   0.0126984
        k(   84) = (  -0.4000000  -0.1428571   0.4444444), wk =   0.0126984
        k(   85) = (  -0.4000000  -0.2857143   0.1111111), wk =   0.0126984
        k(   86) = (  -0.4000000  -0.2857143   0.2222222), wk =   0.0126984
        k(   87) = (  -0.4000000  -0.2857143   0.3333333), wk =   0.0126984
        k(   88) = (  -0.4000000  -0.2857143   0.4444444), wk =   0.0126984
        k(   89) = (  -0.4000000  -0.4285714   0.1111111), wk =   0.0126984
        k(   90) = (  -0.4000000  -0.4285714   0.2222222), wk =   0.0126984
        k(   91) = (  -0.4000000  -0.4285714   0.3333333), wk =   0.0126984
        k(   92) = (  -0.4000000  -0.4285714   0.4444444), wk =   0.0126984

     Dense  grid:  1273469 G-vectors     FFT dimensions: ( 216, 128, 100)

     Smooth grid:   287059 G-vectors     FFT dimensions: ( 125,  80,  60)

     Dynamical RAM for                 wfc:       5.93 MB

     Dynamical RAM for     wfc (w. buffer):    1096.88 MB

     Dynamical RAM for           str. fact:       6.48 MB

     Dynamical RAM for           local pot:       0.00 MB

     Dynamical RAM for          nlocal pot:      13.86 MB

     Dynamical RAM for                qrad:      10.54 MB

     Dynamical RAM for          rho,v,vnew:      21.11 MB

     Dynamical RAM for               rhoin:       7.04 MB

     Dynamical RAM for            rho*nmix:      51.82 MB

     Dynamical RAM for           G-vectors:       6.25 MB

     Dynamical RAM for          h,s,v(r/c):       3.09 MB

     Dynamical RAM for          <psi|beta>:       0.60 MB

     Dynamical RAM for                 psi:      11.86 MB

     Dynamical RAM for                hpsi:      11.86 MB

     Dynamical RAM for                spsi:      11.86 MB

     Dynamical RAM for      wfcinit/wfcrot:      14.39 MB

     Dynamical RAM for           addusdens:     328.72 MB

     Dynamical RAM for          addusforce:     377.42 MB

     Dynamical RAM for         addusstress:     327.91 MB

     Estimated static dynamical RAM per process >       1.20 GB

     Estimated max dynamical RAM per process >       1.57 GB

     Estimated total dynamical RAM >      18.88 GB

     Check: negative core charge=   -0.000003
     Generating pointlists ...
     new r_m :   0.0826 (alat units)  1.5968 (a.u.) for type    1
     new r_m :   0.0926 (alat units)  1.7908 (a.u.) for type    2
     new r_m :   0.0613 (alat units)  1.1849 (a.u.) for type    3
     new r_m :   0.0613 (alat units)  1.1849 (a.u.) for type    4

     Initial potential from superposition of free atoms

     starting charge  215.97252, renormalised to  216.00000
     Starting wfcs are  152 randomized atomic wfcs
     Checking if some PAW data can be deallocated... 
       PAW data deallocated on   10 nodes for type:  1
       PAW data deallocated on    4 nodes for type:  3

     total cpu time spent up to now is     1648.6 secs

     Self-consistent Calculation

     iteration #  1     ecut=   100.00 Ry     beta= 0.40
     Davidson diagonalization with overlap
     ethr =  1.00E-02,  avg # of iterations =  3.5

     negative rho (up, down):  0.000E+00 3.955E-05

     total cpu time spent up to now is     6442.1 secs

     total energy              =   -2380.65311605 Ry
     estimated scf accuracy    <       5.71860611 Ry

     total magnetization       =    16.00 Bohr mag/cell
     absolute magnetization    =    16.01 Bohr mag/cell

     iteration #  2     ecut=   100.00 Ry     beta= 0.40
     Davidson diagonalization with overlap
     ethr =  2.65E-03,  avg # of iterations =  2.0

     negative rho (up, down):  0.000E+00 1.498E-04

     total cpu time spent up to now is    10814.6 secs

     total energy              =   -2381.99016195 Ry
     estimated scf accuracy    <       0.52235123 Ry

     total magnetization       =    16.00 Bohr mag/cell
     absolute magnetization    =    16.01 Bohr mag/cell

     iteration #  3     ecut=   100.00 Ry     beta= 0.40
     Davidson diagonalization with overlap
     ethr =  2.42E-04,  avg # of iterations =  8.8

     negative rho (up, down):  0.000E+00 1.677E-04

     total cpu time spent up to now is    15840.1 secs

     total energy              =   -2381.97014176 Ry
     estimated scf accuracy    <       4.52062124 Ry

     total magnetization       =    15.41 Bohr mag/cell
     absolute magnetization    =    15.47 Bohr mag/cell

     iteration #  4     ecut=   100.00 Ry     beta= 0.40
     Davidson diagonalization with overlap
     ethr =  2.42E-04,  avg # of iterations =  2.0

     negative rho (up, down):  0.000E+00 3.009E-04

     total cpu time spent up to now is    19652.6 secs

     total energy              =   -2382.07739279 Ry
     estimated scf accuracy    <       1.10651235 Ry

     total magnetization       =    16.00 Bohr mag/cell
     absolute magnetization    =    16.06 Bohr mag/cell

     iteration #  5     ecut=   100.00 Ry     beta= 0.40
     Davidson diagonalization with overlap
     ethr =  2.42E-04,  avg # of iterations =  1.5

     negative rho (up, down):  0.000E+00 4.380E-04

     total cpu time spent up to now is    23289.4 secs

     total energy              =   -2382.06224771 Ry
     estimated scf accuracy    <       2.00177401 Ry

     total magnetization       =    16.00 Bohr mag/cell
     absolute magnetization    =    16.07 Bohr mag/cell

     iteration #  6     ecut=   100.00 Ry     beta= 0.40
     Davidson diagonalization with overlap
     ethr =  2.42E-04,  avg # of iterations =  1.5

     negative rho (up, down):  0.000E+00 4.707E-04

     total cpu time spent up to now is    26907.7 secs

     total energy              =   -2382.13459615 Ry
     estimated scf accuracy    <       1.96526364 Ry

     total magnetization       =    16.00 Bohr mag/cell
     absolute magnetization    =    16.08 Bohr mag/cell

     iteration #  7     ecut=   100.00 Ry     beta= 0.40
     Davidson diagonalization with overlap
     ethr =  2.42E-04,  avg # of iterations =  1.0

     negative rho (up, down):  0.000E+00 4.769E-04

     total cpu time spent up to now is    30424.6 secs

     total energy              =   -2382.16729137 Ry
     estimated scf accuracy    <       0.04686887 Ry

     total magnetization       =    16.00 Bohr mag/cell
     absolute magnetization    =    16.06 Bohr mag/cell

     iteration #  8     ecut=   100.00 Ry     beta= 0.40
     Davidson diagonalization with overlap
     c_bands:  1 eigenvalues not converged
     c_bands:  1 eigenvalues not converged
     c_bands:  1 eigenvalues not converged
     c_bands:  1 eigenvalues not converged
     c_bands:  4 eigenvalues not converged
     ethr =  2.17E-05,  avg # of iterations =  5.6

     negative rho (up, down):  0.000E+00 4.761E-04

     total cpu time spent up to now is    34330.0 secs

     total energy              =   -2382.16984715 Ry
     estimated scf accuracy    <       0.11091933 Ry

     total magnetization       =    16.00 Bohr mag/cell
     absolute magnetization    =    16.07 Bohr mag/cell

     iteration #  9     ecut=   100.00 Ry     beta= 0.40
     Davidson diagonalization with overlap
     ethr =  2.17E-05,  avg # of iterations =  1.1

     negative rho (up, down):  0.000E+00 4.617E-04

     total cpu time spent up to now is    37838.3 secs

     total energy              =   -2382.17137287 Ry
     estimated scf accuracy    <       0.13649159 Ry

     total magnetization       =    16.00 Bohr mag/cell
     absolute magnetization    =    16.07 Bohr mag/cell

     iteration # 10     ecut=   100.00 Ry     beta= 0.40
     Davidson diagonalization with overlap
     ethr =  2.17E-05,  avg # of iterations =  1.3

     negative rho (up, down):  0.000E+00 4.557E-04

     total cpu time spent up to now is    41373.8 secs

     total energy              =   -2382.17562637 Ry
     estimated scf accuracy    <       0.04056181 Ry

     total magnetization       =    16.00 Bohr mag/cell
     absolute magnetization    =    16.08 Bohr mag/cell

     iteration # 11     ecut=   100.00 Ry     beta= 0.40
     Davidson diagonalization with overlap
     ethr =  1.88E-05,  avg # of iterations =  1.0

     negative rho (up, down):  0.000E+00 4.518E-04

     total cpu time spent up to now is    44881.4 secs

     total energy              =   -2382.17920615 Ry
     estimated scf accuracy    <       0.05715155 Ry

     total magnetization       =    16.00 Bohr mag/cell
     absolute magnetization    =    16.08 Bohr mag/cell

     iteration # 12     ecut=   100.00 Ry     beta= 0.40
     Davidson diagonalization with overlap
     ethr =  1.88E-05,  avg # of iterations =  1.1

     negative rho (up, down):  0.000E+00 4.518E-04

     total cpu time spent up to now is    48412.8 secs

     total energy              =   -2382.17949870 Ry
     estimated scf accuracy    <       0.03814986 Ry

     total magnetization       =    16.00 Bohr mag/cell
     absolute magnetization    =    16.08 Bohr mag/cell

     iteration # 13     ecut=   100.00 Ry     beta= 0.40
     Davidson diagonalization with overlap
     ethr =  1.77E-05,  avg # of iterations =  1.0

     negative rho (up, down):  0.000E+00 4.541E-04

     total cpu time spent up to now is    51927.7 secs

     total energy              =   -2382.18024091 Ry
     estimated scf accuracy    <       0.03889691 Ry

     total magnetization       =    16.00 Bohr mag/cell
     absolute magnetization    =    16.08 Bohr mag/cell

     iteration # 14     ecut=   100.00 Ry     beta= 0.40
     Davidson diagonalization with overlap
     ethr =  1.77E-05,  avg # of iterations =  1.0

     negative rho (up, down):  0.000E+00 4.628E-04

     total cpu time spent up to now is    55431.8 secs

     total energy              =   -2382.18160915 Ry
     estimated scf accuracy    <       0.03416281 Ry

     total magnetization       =    16.00 Bohr mag/cell
     absolute magnetization    =    16.08 Bohr mag/cell

     iteration # 15     ecut=   100.00 Ry     beta= 0.40
     Davidson diagonalization with overlap
     ethr =  1.58E-05,  avg # of iterations =  1.0

     negative rho (up, down):  0.000E+00 5.287E-04

     total cpu time spent up to now is    58928.7 secs

     total energy              =   -2382.18244328 Ry
     estimated scf accuracy    <       0.02186706 Ry

     total magnetization       =    16.00 Bohr mag/cell
     absolute magnetization    =    16.08 Bohr mag/cell

     iteration # 16     ecut=   100.00 Ry     beta= 0.40
     Davidson diagonalization with overlap
     ethr =  1.01E-05,  avg # of iterations =  2.1

     negative rho (up, down):  0.000E+00 5.039E-04

     total cpu time spent up to now is    62688.7 secs

     total energy              =   -2382.18534367 Ry
     estimated scf accuracy    <       0.00317650 Ry

     total magnetization       =    16.00 Bohr mag/cell
     absolute magnetization    =    16.09 Bohr mag/cell

     iteration # 17     ecut=   100.00 Ry     beta= 0.40
     Davidson diagonalization with overlap
     c_bands:  1 eigenvalues not converged
     c_bands:  1 eigenvalues not converged
     c_bands:  1 eigenvalues not converged
     c_bands:  1 eigenvalues not converged
     c_bands:  1 eigenvalues not converged
     c_bands:  1 eigenvalues not converged
     c_bands:  2 eigenvalues not converged
     c_bands:  1 eigenvalues not converged
     c_bands:  1 eigenvalues not converged
     c_bands:  1 eigenvalues not converged
     c_bands:  1 eigenvalues not converged
     ethr =  1.47E-06,  avg # of iterations = 10.8

     negative rho (up, down):  0.000E+00 5.043E-04

     total cpu time spent up to now is    67202.7 secs

     total energy              =   -2382.18537374 Ry
     estimated scf accuracy    <       0.00136829 Ry

     total magnetization       =    16.00 Bohr mag/cell
     absolute magnetization    =    16.09 Bohr mag/cell

     iteration # 18     ecut=   100.00 Ry     beta= 0.40
     Davidson diagonalization with overlap
     ethr =  6.33E-07,  avg # of iterations =  1.8

     negative rho (up, down):  0.000E+00 4.952E-04

     total cpu time spent up to now is    70790.5 secs

     total energy              =   -2382.18525473 Ry
     estimated scf accuracy    <       0.00096266 Ry

     total magnetization       =    16.00 Bohr mag/cell
     absolute magnetization    =    16.09 Bohr mag/cell

     iteration # 19     ecut=   100.00 Ry     beta= 0.40
     Davidson diagonalization with overlap
     ethr =  4.46E-07,  avg # of iterations =  1.0

     negative rho (up, down):  0.000E+00 4.838E-04

     total cpu time spent up to now is    74298.3 secs

     total energy              =   -2382.18516422 Ry
     estimated scf accuracy    <       0.00045155 Ry

     total magnetization       =    16.00 Bohr mag/cell
     absolute magnetization    =    16.08 Bohr mag/cell

     iteration # 20     ecut=   100.00 Ry     beta= 0.40
     Davidson diagonalization with overlap
     ethr =  2.09E-07,  avg # of iterations =  1.9

     negative rho (up, down):  0.000E+00 4.792E-04

     total cpu time spent up to now is    77976.8 secs

     total energy              =   -2382.18516832 Ry
     estimated scf accuracy    <       0.00012261 Ry

     total magnetization       =    16.00 Bohr mag/cell
     absolute magnetization    =    16.08 Bohr mag/cell

     iteration # 21     ecut=   100.00 Ry     beta= 0.40
     Davidson diagonalization with overlap
     ethr =  5.68E-08,  avg # of iterations =  2.3

     negative rho (up, down):  0.000E+00 4.706E-04

     total cpu time spent up to now is    81748.2 secs

     total energy              =   -2382.18515883 Ry
     estimated scf accuracy    <       0.00005010 Ry

     total magnetization       =    16.00 Bohr mag/cell
     absolute magnetization    =    16.08 Bohr mag/cell

     iteration # 22     ecut=   100.00 Ry     beta= 0.40
     Davidson diagonalization with overlap
     ethr =  2.32E-08,  avg # of iterations =  3.8

     negative rho (up, down):  0.000E+00 4.708E-04

     total cpu time spent up to now is    86336.9 secs

     total energy              =   -2382.18517197 Ry
     estimated scf accuracy    <       0.00000479 Ry

     total magnetization       =    16.00 Bohr mag/cell
     absolute magnetization    =    16.08 Bohr mag/cell

     iteration # 23     ecut=   100.00 Ry     beta= 0.40
     Davidson diagonalization with overlap
     ethr =  2.22E-09,  avg # of iterations =  4.9

     negative rho (up, down):  0.000E+00 4.703E-04

     total cpu time spent up to now is    92090.8 secs

     total energy              =   -2382.18517601 Ry
     estimated scf accuracy    <       0.00000759 Ry

     total magnetization       =    16.00 Bohr mag/cell
     absolute magnetization    =    16.08 Bohr mag/cell

     iteration # 24     ecut=   100.00 Ry     beta= 0.40
     Davidson diagonalization with overlap
     ethr =  2.22E-09,  avg # of iterations =  2.0

     negative rho (up, down):  0.000E+00 4.704E-04

     total cpu time spent up to now is    96015.0 secs

     total energy              =   -2382.18517885 Ry
     estimated scf accuracy    <       0.00000244 Ry

     total magnetization       =    16.00 Bohr mag/cell
     absolute magnetization    =    16.08 Bohr mag/cell

     iteration # 25     ecut=   100.00 Ry     beta= 0.40
     Davidson diagonalization with overlap
     ethr =  1.13E-09,  avg # of iterations =  2.0

     negative rho (up, down):  0.000E+00 4.707E-04

     total cpu time spent up to now is    99818.4 secs

     total energy              =   -2382.18518049 Ry
     estimated scf accuracy    <       0.00000234 Ry

     total magnetization       =    16.00 Bohr mag/cell
     absolute magnetization    =    16.08 Bohr mag/cell

     iteration # 26     ecut=   100.00 Ry     beta= 0.40
     Davidson diagonalization with overlap
     ethr =  1.09E-09,  avg # of iterations =  2.0

     negative rho (up, down):  0.000E+00 4.719E-04

     total cpu time spent up to now is   103599.3 secs

     total energy              =   -2382.18517175 Ry
     estimated scf accuracy    <       0.00000189 Ry

     total magnetization       =    16.00 Bohr mag/cell
     absolute magnetization    =    16.08 Bohr mag/cell

     iteration # 27     ecut=   100.00 Ry     beta= 0.40
     Davidson diagonalization with overlap
     ethr =  8.74E-10,  avg # of iterations =  3.9

     negative rho (up, down):  0.000E+00 4.742E-04

     total cpu time spent up to now is   108382.0 secs

     total energy              =   -2382.18515071 Ry
     estimated scf accuracy    <       0.00000251 Ry

     total magnetization       =    16.00 Bohr mag/cell
     absolute magnetization    =    16.08 Bohr mag/cell

     iteration # 28     ecut=   100.00 Ry     beta= 0.40
     Davidson diagonalization with overlap
     ethr =  8.74E-10,  avg # of iterations =  4.3

     negative rho (up, down):  0.000E+00 4.749E-04

     total cpu time spent up to now is   113561.5 secs

     total energy              =   -2382.18519037 Ry
     estimated scf accuracy    <       0.00000086 Ry

     total magnetization       =    16.00 Bohr mag/cell
     absolute magnetization    =    16.08 Bohr mag/cell

     iteration # 29     ecut=   100.00 Ry     beta= 0.40
     Davidson diagonalization with overlap
     ethr =  3.96E-10,  avg # of iterations =  2.0

     negative rho (up, down):  0.000E+00 4.752E-04

     total cpu time spent up to now is   117618.8 secs

     total energy              =   -2382.18519224 Ry
     estimated scf accuracy    <       0.00000018 Ry

     total magnetization       =    16.00 Bohr mag/cell
     absolute magnetization    =    16.08 Bohr mag/cell

     iteration # 30     ecut=   100.00 Ry     beta= 0.40
     Davidson diagonalization with overlap
     ethr =  8.50E-11,  avg # of iterations =  3.9

     negative rho (up, down):  0.000E+00 4.754E-04

     total cpu time spent up to now is   122311.2 secs

     total energy              =   -2382.18519308 Ry
     estimated scf accuracy    <       0.00000010 Ry

     total magnetization       =    16.00 Bohr mag/cell
     absolute magnetization    =    16.08 Bohr mag/cell

     iteration # 31     ecut=   100.00 Ry     beta= 0.40
     Davidson diagonalization with overlap
     ethr =  4.77E-11,  avg # of iterations =  2.5

     negative rho (up, down):  0.000E+00 4.755E-04

     total cpu time spent up to now is   126703.1 secs

     total energy              =   -2382.18519350 Ry
     estimated scf accuracy    <       0.00000010 Ry

     total magnetization       =    16.00 Bohr mag/cell
     absolute magnetization    =    16.08 Bohr mag/cell

     iteration # 32     ecut=   100.00 Ry     beta= 0.40
     Davidson diagonalization with overlap
     ethr =  4.58E-11,  avg # of iterations =  2.5

     negative rho (up, down):  0.000E+00 4.757E-04

     total cpu time spent up to now is   130994.9 secs

     total energy              =   -2382.18519361 Ry
     estimated scf accuracy    <       0.00000008 Ry

     total magnetization       =    16.00 Bohr mag/cell
     absolute magnetization    =    16.08 Bohr mag/cell

     iteration # 33     ecut=   100.00 Ry     beta= 0.40
     Davidson diagonalization with overlap
     ethr =  3.79E-11,  avg # of iterations =  3.8

     negative rho (up, down):  0.000E+00 4.758E-04

     total cpu time spent up to now is   135689.6 secs

     total energy              =   -2382.18519388 Ry
     estimated scf accuracy    <       0.00000005 Ry

     total magnetization       =    16.00 Bohr mag/cell
     absolute magnetization    =    16.08 Bohr mag/cell

     iteration # 34     ecut=   100.00 Ry     beta= 0.40
     Davidson diagonalization with overlap
     ethr =  2.15E-11,  avg # of iterations =  4.0

     negative rho (up, down):  0.000E+00 4.760E-04

     total cpu time spent up to now is   140474.4 secs

     total energy              =   -2382.18519393 Ry
     estimated scf accuracy    <       0.00000003 Ry

     total magnetization       =    16.00 Bohr mag/cell
     absolute magnetization    =    16.08 Bohr mag/cell

     iteration # 35     ecut=   100.00 Ry     beta= 0.40
     Davidson diagonalization with overlap
     ethr =  1.17E-11,  avg # of iterations =  4.0

     negative rho (up, down):  0.000E+00 4.762E-04

     total cpu time spent up to now is   145431.2 secs

     total energy              =   -2382.18519423 Ry
     estimated scf accuracy    <       0.00000007 Ry

     total magnetization       =    16.00 Bohr mag/cell
     absolute magnetization    =    16.08 Bohr mag/cell

     iteration # 36     ecut=   100.00 Ry     beta= 0.40
     Davidson diagonalization with overlap
     ethr =  1.17E-11,  avg # of iterations =  3.0

     negative rho (up, down):  0.000E+00 4.762E-04

     total cpu time spent up to now is   150026.7 secs

     total energy              =   -2382.18519434 Ry
     estimated scf accuracy    <          4.5E-09 Ry

     total magnetization       =    16.00 Bohr mag/cell
     absolute magnetization    =    16.08 Bohr mag/cell

     iteration # 37     ecut=   100.00 Ry     beta= 0.40
     Davidson diagonalization with overlap
     ethr =  2.08E-12,  avg # of iterations =  4.0

     negative rho (up, down):  0.000E+00 4.762E-04

     total cpu time spent up to now is   155015.7 secs

     total energy              =   -2382.18519440 Ry
     estimated scf accuracy    <       0.00000001 Ry

     total magnetization       =    16.00 Bohr mag/cell
     absolute magnetization    =    16.08 Bohr mag/cell

     iteration # 38     ecut=   100.00 Ry     beta= 0.40
     Davidson diagonalization with overlap
     ethr =  2.08E-12,  avg # of iterations =  2.0

     negative rho (up, down):  0.000E+00 4.762E-04

     total cpu time spent up to now is   158956.1 secs

     total energy              =   -2382.18519440 Ry
     estimated scf accuracy    <          5.4E-10 Ry

     total magnetization       =    16.00 Bohr mag/cell
     absolute magnetization    =    16.08 Bohr mag/cell

     iteration # 39     ecut=   100.00 Ry     beta= 0.40
     Davidson diagonalization with overlap
     ethr =  2.51E-13,  avg # of iterations =  4.9

     negative rho (up, down):  0.000E+00 4.762E-04

     Magnetic moment per site:
     atom:    1    charge:    7.9608    magn:    0.0001    constr:    0.0000
     atom:    2    charge:    7.9608    magn:    0.0001    constr:    0.0000
     atom:    3    charge:    7.9608    magn:    0.0001    constr:    0.0000
     atom:    4    charge:    7.9608    magn:    0.0001    constr:    0.0000
     atom:    5    charge:   13.3059    magn:    3.3349    constr:    0.0000
     atom:    6    charge:   13.3059    magn:    3.3349    constr:    0.0000
     atom:    7    charge:   13.3059    magn:    3.3349    constr:    0.0000
     atom:    8    charge:   13.3060    magn:    3.3349    constr:    0.0000
     atom:    9    charge:    0.8479    magn:    0.0062    constr:    0.0000
     atom:   10    charge:    0.8479    magn:    0.0062    constr:    0.0000
     atom:   11    charge:    0.8479    magn:    0.0062    constr:    0.0000
     atom:   12    charge:    0.8479    magn:    0.0062    constr:    0.0000
     atom:   13    charge:    4.2203    magn:    0.0313    constr:    0.0000
     atom:   14    charge:    4.2203    magn:    0.0313    constr:    0.0000
     atom:   15    charge:    4.2203    magn:    0.0313    constr:    0.0000
     atom:   16    charge:    4.2203    magn:    0.0313    constr:    0.0000
     atom:   17    charge:    4.2408    magn:    0.0435    constr:    0.0000
     atom:   18    charge:    4.2408    magn:    0.0435    constr:    0.0000
     atom:   19    charge:    4.2408    magn:    0.0435    constr:    0.0000
     atom:   20    charge:    4.2408    magn:    0.0435    constr:    0.0000
     atom:   21    charge:    4.2187    magn:    0.0740    constr:    0.0000
     atom:   22    charge:    4.2187    magn:    0.0740    constr:    0.0000
     atom:   23    charge:    4.2187    magn:    0.0741    constr:    0.0000
     atom:   24    charge:    4.2187    magn:    0.0740    constr:    0.0000
     atom:   25    charge:    4.2187    magn:    0.0741    constr:    0.0000
     atom:   26    charge:    4.2187    magn:    0.0740    constr:    0.0000
     atom:   27    charge:    4.2187    magn:    0.0741    constr:    0.0000
     atom:   28    charge:    4.2187    magn:    0.0740    constr:    0.0000

     total cpu time spent up to now is   164208.6 secs

     End of self-consistent calculation

 ------ SPIN UP ------------


          k = 0.0000 0.0000 0.0000 ( 35837 PWs)   bands (ev):

   -80.7700 -80.7697 -80.7685 -80.7680 -47.6567 -47.6558 -47.6551 -47.6543
   -46.7489 -46.7487 -46.7475 -46.7468 -46.0697 -46.0689 -46.0680 -46.0674
   -42.7328 -42.7328 -42.7245 -42.7245 -15.0788 -15.0538 -14.8042 -14.7986
   -14.7527 -14.7508 -14.7493 -14.7460 -14.6912 -14.6909 -14.6623 -14.6620
   -14.6423 -14.4658 -14.1212 -14.0317 -11.8347 -11.8311 -11.8108 -11.7960
   -11.7602 -11.7590 -11.6583 -11.6568 -11.6542 -11.6473 -11.6168 -11.5927
    -1.8715  -1.4268  -1.2655  -1.2286  -0.3308   0.1408   0.1763   0.2943
     0.4760   0.5697   0.8847   0.9143   0.9404   0.9677   1.0211   1.3390
     2.1353   2.3161   2.5959   2.6766   2.8021   2.9362   2.9675   3.0725
     3.1368   3.1782   3.2126   3.4802   3.5018   3.6373   3.6799   3.7310
     3.7577   3.8362   3.8819   3.9256   3.9905   4.1300   4.3404   4.3880
     4.4168   4.5039   4.6003   4.9227   4.9676   5.0598   5.4002   5.5497
     5.6569   5.7300   5.7823   6.0231   6.0503   6.1086   6.1417   6.1604
     6.3041   6.5279   6.7852   6.8180   6.9007   6.9750   6.9756   7.2708
     7.3061   7.3633   7.4997   7.5363  10.7313  12.7331  12.9722  13.3799
    13.8608  14.2347  14.6358  15.3241  15.5392  15.5982  15.7734  15.7756
    15.7798  15.8917

     occupation numbers 
     1.0000   1.0000   1.0000   1.0000   1.0000   1.0000   1.0000   1.0000
     1.0000   1.0000   1.0000   1.0000   1.0000   1.0000   1.0000   1.0000
     1.0000   1.0000   1.0000   1.0000   1.0000   1.0000   1.0000   1.0000
     1.0000   1.0000   1.0000   1.0000   1.0000   1.0000   1.0000   1.0000
     1.0000   1.0000   1.0000   1.0000   1.0000   1.0000   1.0000   1.0000
     1.0000   1.0000   1.0000   1.0000   1.0000   1.0000   1.0000   1.0000
     1.0000   1.0000   1.0000   1.0000   1.0000   1.0000   1.0000   1.0000
     1.0000   1.0000   1.0000   1.0000   1.0000   1.0000   1.0000   1.0000
     1.0000   1.0000   1.0000   1.0000   1.0000   1.0000   1.0000   1.0000
     1.0000   1.0000   1.0000   1.0000   1.0000   1.0000   1.0000   1.0000
     1.0000   1.0000   1.0000   1.0000   1.0000   1.0000   1.0000   1.0000
     1.0000   1.0000   1.0000   1.0000   1.0000   1.0000   1.0000   1.0000
     1.0000   1.0000   1.0000   1.0000   1.0000   1.0000   1.0000   1.0000
     1.0000   1.0000   1.0000   1.0000   1.0000   1.0000   1.0000   1.0000
     1.0000   1.0000   1.0000   1.0000   0.0000   0.0000   0.0000   0.0000
     0.0000   0.0000   0.0000   0.0000   0.0000   0.0000   0.0000   0.0000
     0.0000   0.0000

          k = 0.0000 0.0000 0.2298 ( 35841 PWs)   bands (ev):

   -80.7700 -80.7697 -80.7685 -80.7680 -47.6567 -47.6558 -47.6551 -47.6543
   -46.7489 -46.7487 -46.7475 -46.7468 -46.0697 -46.0689 -46.0680 -46.0674
   -42.7328 -42.7328 -42.7245 -42.7245 -15.0720 -15.0477 -14.8298 -14.8167
   -14.7772 -14.7584 -14.7527 -14.7496 -14.6913 -14.6910 -14.6624 -14.6621
   -14.5659 -14.4217 -14.1323 -14.0481 -11.8481 -11.8238 -11.8218 -11.8080
   -11.7571 -11.7566 -11.6729 -11.6597 -11.6563 -11.6401 -11.6217 -11.5995
    -1.8489  -1.4273  -1.2764  -1.2117  -0.2656   0.1617   0.2365   0.3505
     0.4769   0.5886   0.8977   0.9192   0.9374   0.9553   0.9894   1.3211
     2.1345   2.3055   2.5989   2.6324   2.8137   2.8660   2.9785   3.0045
     3.0511   3.1453   3.2545   3.4396   3.5043   3.5626   3.6827   3.6978
     3.7192   3.7591   3.9865   4.0503   4.0722   4.1429   4.2660   4.3750
     4.3935   4.5390   4.6520   4.9416   4.9670   5.0897   5.3903   5.5280
     5.6467   5.7334   5.7593   6.0244   6.0515   6.0784   6.1130   6.1280
     6.3409   6.5453   6.8161   6.8562   6.9058   6.9896   6.9899   7.2466
     7.2859   7.3295   7.5093   7.5288  10.8824  12.7744  13.0624  13.3770
    13.8982  14.1463  14.7998  15.0041  15.3592  15.5154  15.5207  15.6337
    15.9192  15.9482

     occupation numbers 
     1.0000   1.0000   1.0000   1.0000   1.0000   1.0000   1.0000   1.0000
     1.0000   1.0000   1.0000   1.0000   1.0000   1.0000   1.0000   1.0000
     1.0000   1.0000   1.0000   1.0000   1.0000   1.0000   1.0000   1.0000
     1.0000   1.0000   1.0000   1.0000   1.0000   1.0000   1.0000   1.0000
     1.0000   1.0000   1.0000   1.0000   1.0000   1.0000   1.0000   1.0000
     1.0000   1.0000   1.0000   1.0000   1.0000   1.0000   1.0000   1.0000
     1.0000   1.0000   1.0000   1.0000   1.0000   1.0000   1.0000   1.0000
     1.0000   1.0000   1.0000   1.0000   1.0000   1.0000   1.0000   1.0000
     1.0000   1.0000   1.0000   1.0000   1.0000   1.0000   1.0000   1.0000
     1.0000   1.0000   1.0000   1.0000   1.0000   1.0000   1.0000   1.0000
     1.0000   1.0000   1.0000   1.0000   1.0000   1.0000   1.0000   1.0000
     1.0000   1.0000   1.0000   1.0000   1.0000   1.0000   1.0000   1.0000
     1.0000   1.0000   1.0000   1.0000   1.0000   1.0000   1.0000   1.0000
     1.0000   1.0000   1.0000   1.0000   1.0000   1.0000   1.0000   1.0000
     1.0000   1.0000   1.0000   1.0000   0.0000   0.0000   0.0000   0.0000
     0.0000   0.0000   0.0000   0.0000   0.0000   0.0000   0.0000   0.0000
     0.0000   0.0000

          k = 0.0000 0.0000 0.4597 ( 35884 PWs)   bands (ev):

   -80.7700 -80.7697 -80.7685 -80.7680 -47.6567 -47.6559 -47.6550 -47.6543
   -46.7489 -46.7487 -46.7475 -46.7468 -46.0697 -46.0690 -46.0680 -46.0674
   -42.7328 -42.7328 -42.7245 -42.7245 -15.0630 -15.0399 -14.8712 -14.8546
   -14.7789 -14.7626 -14.7528 -14.7502 -14.6916 -14.6913 -14.6626 -14.6624
   -14.4504 -14.3415 -14.1583 -14.0881 -11.8751 -11.8587 -11.8302 -11.8027
   -11.7584 -11.7462 -11.7273 -11.6680 -11.6674 -11.6190 -11.6175 -11.6172
    -1.7835  -1.4222  -1.3004  -1.2041  -0.0675   0.2323   0.3813   0.4855
     0.4943   0.6342   0.9002   0.9037   0.9359   0.9539   0.9728   1.2662
     2.1280   2.2796   2.5261   2.6067   2.7390   2.8331   2.8658   2.8965
     2.9551   3.0567   3.2767   3.4056   3.4419   3.4701   3.4809   3.6318
     3.6730   3.7295   4.1098   4.1268   4.1955   4.2439   4.2922   4.3724
     4.4010   4.5978   4.6869   4.9590   5.0118   5.1727   5.3561   5.4924
     5.6316   5.7092   5.7436   5.9356   6.0123   6.0220   6.0938   6.1290
     6.4388   6.6045   6.8657   6.9208   6.9298   7.0214   7.0408   7.1752
     7.2257   7.2664   7.5105   7.5163  11.2817  12.8882  13.2113  13.4533
    14.0030  14.0717  14.5078  14.9862  15.1153  15.1938  15.2803  15.4628
    15.7018  15.9205

     occupation numbers 
     1.0000   1.0000   1.0000   1.0000   1.0000   1.0000   1.0000   1.0000
     1.0000   1.0000   1.0000   1.0000   1.0000   1.0000   1.0000   1.0000
     1.0000   1.0000   1.0000   1.0000   1.0000   1.0000   1.0000   1.0000
     1.0000   1.0000   1.0000   1.0000   1.0000   1.0000   1.0000   1.0000
     1.0000   1.0000   1.0000   1.0000   1.0000   1.0000   1.0000   1.0000
     1.0000   1.0000   1.0000   1.0000   1.0000   1.0000   1.0000   1.0000
     1.0000   1.0000   1.0000   1.0000   1.0000   1.0000   1.0000   1.0000
     1.0000   1.0000   1.0000   1.0000   1.0000   1.0000   1.0000   1.0000
     1.0000   1.0000   1.0000   1.0000   1.0000   1.0000   1.0000   1.0000
     1.0000   1.0000   1.0000   1.0000   1.0000   1.0000   1.0000   1.0000
     1.0000   1.0000   1.0000   1.0000   1.0000   1.0000   1.0000   1.0000
     1.0000   1.0000   1.0000   1.0000   1.0000   1.0000   1.0000   1.0000
     1.0000   1.0000   1.0000   1.0000   1.0000   1.0000   1.0000   1.0000
     1.0000   1.0000   1.0000   1.0000   1.0000   1.0000   1.0000   1.0000
     1.0000   1.0000   1.0000   1.0000   0.0000   0.0000   0.0000   0.0000
     0.0000   0.0000   0.0000   0.0000   0.0000   0.0000   0.0000   0.0000
     0.0000   0.0000

          k = 0.0000 0.0000 0.6895 ( 35896 PWs)   bands (ev):

   -80.7700 -80.7697 -80.7685 -80.7680 -47.6566 -47.6559 -47.6549 -47.6544
   -46.7489 -46.7487 -46.7475 -46.7468 -46.0696 -46.0690 -46.0680 -46.0675
   -42.7328 -42.7328 -42.7245 -42.7245 -15.0691 -15.0504 -14.8707 -14.8638
   -14.7703 -14.7577 -14.7528 -14.7511 -14.6918 -14.6916 -14.6628 -14.6626
   -14.3630 -14.2973 -14.1726 -14.1200 -11.9026 -11.8982 -11.8552 -11.8179
   -11.7710 -11.7342 -11.7304 -11.6885 -11.6818 -11.6485 -11.6032 -11.5981
    -1.6824  -1.4012  -1.3499  -1.2410   0.2302   0.3556   0.5016   0.5150
     0.6627   0.6821   0.7881   0.8314   0.9527   1.0843   1.0978   1.1790
     2.1024   2.2645   2.3856   2.5641   2.6248   2.6652   2.8209   2.8482
     2.8918   2.9572   2.9673   3.2919   3.4040   3.4420   3.5011   3.5682
     3.6815   3.6931   3.9808   4.0286   4.3149   4.4065   4.4366   4.4807
     4.4942   4.6561   4.7495   4.9271   5.0282   5.2356   5.3359   5.5337
     5.6378   5.6470   5.7619   5.8253   5.9134   5.9650   6.0898   6.1560
     6.5791   6.7116   6.8978   6.9402   6.9900   7.0356   7.0604   7.1169
     7.1272   7.2242   7.4926   7.5097  11.8161  13.0669  13.1441  13.6864
    14.0420  14.0652  14.2880  14.7502  14.7686  15.1542  15.1793  15.3652
    15.4510  15.8762

     occupation numbers 
     1.0000   1.0000   1.0000   1.0000   1.0000   1.0000   1.0000   1.0000
     1.0000   1.0000   1.0000   1.0000   1.0000   1.0000   1.0000   1.0000
     1.0000   1.0000   1.0000   1.0000   1.0000   1.0000   1.0000   1.0000
     1.0000   1.0000   1.0000   1.0000   1.0000   1.0000   1.0000   1.0000
     1.0000   1.0000   1.0000   1.0000   1.0000   1.0000   1.0000   1.0000
     1.0000   1.0000   1.0000   1.0000   1.0000   1.0000   1.0000   1.0000
     1.0000   1.0000   1.0000   1.0000   1.0000   1.0000   1.0000   1.0000
     1.0000   1.0000   1.0000   1.0000   1.0000   1.0000   1.0000   1.0000
     1.0000   1.0000   1.0000   1.0000   1.0000   1.0000   1.0000   1.0000
     1.0000   1.0000   1.0000   1.0000   1.0000   1.0000   1.0000   1.0000
     1.0000   1.0000   1.0000   1.0000   1.0000   1.0000   1.0000   1.0000
     1.0000   1.0000   1.0000   1.0000   1.0000   1.0000   1.0000   1.0000
     1.0000   1.0000   1.0000   1.0000   1.0000   1.0000   1.0000   1.0000
     1.0000   1.0000   1.0000   1.0000   1.0000   1.0000   1.0000   1.0000
     1.0000   1.0000   1.0000   1.0000   0.0000   0.0000   0.0000   0.0000
     0.0000   0.0000   0.0000   0.0000   0.0000   0.0000   0.0000   0.0000
     0.0000   0.0000

          k = 0.0000 0.0000 0.9194 ( 35906 PWs)   bands (ev):

   -80.7700 -80.7697 -80.7685 -80.7680 -47.6565 -47.6560 -47.6548 -47.6545
   -46.7489 -46.7487 -46.7475 -46.7468 -46.0696 -46.0690 -46.0679 -46.0675
   -42.7328 -42.7328 -42.7245 -42.7245 -15.0769 -15.0698 -14.8552 -14.8542
   -14.7569 -14.7525 -14.7524 -14.7512 -14.6920 -14.6919 -14.6629 -14.6628
   -14.3323 -14.3121 -14.1485 -14.1268 -11.9248 -11.9151 -11.8745 -11.8701
   -11.7340 -11.7224 -11.7102 -11.7072 -11.7019 -11.6828 -11.5920 -11.5895
    -1.5596  -1.4389  -1.3608  -1.3038   0.4425   0.5177   0.5646   0.5766
     0.6714   0.7141   0.7368   0.7847   1.0010   1.0816   1.2418   1.2514
     2.0873   2.1982   2.2939   2.4050   2.5264   2.5754   2.6718   2.7502
     2.8584   2.8958   3.0023   3.1250   3.4170   3.4277   3.5150   3.5222
     3.7484   3.7544   3.8555   3.8883   4.3930   4.4415   4.4663   4.5061
     4.7200   4.7507   4.8560   4.8779   4.9661   5.1212   5.4443   5.5489
     5.6753   5.6905   5.7389   5.7912   5.8389   5.8437   6.1194   6.1484
     6.7439   6.8512   6.9114   6.9250   6.9457   6.9973   7.0181   7.0260
     7.1787   7.2087   7.4872   7.4961  12.3761  12.8586  13.3060  13.5573
    14.0901  14.1192  14.3599  14.5126  14.7360  15.0310  15.1553  15.2466
    15.3950  15.5958

     occupation numbers 
     1.0000   1.0000   1.0000   1.0000   1.0000   1.0000   1.0000   1.0000
     1.0000   1.0000   1.0000   1.0000   1.0000   1.0000   1.0000   1.0000
     1.0000   1.0000   1.0000   1.0000   1.0000   1.0000   1.0000   1.0000
     1.0000   1.0000   1.0000   1.0000   1.0000   1.0000   1.0000   1.0000
     1.0000   1.0000   1.0000   1.0000   1.0000   1.0000   1.0000   1.0000
     1.0000   1.0000   1.0000   1.0000   1.0000   1.0000   1.0000   1.0000
     1.0000   1.0000   1.0000   1.0000   1.0000   1.0000   1.0000   1.0000
     1.0000   1.0000   1.0000   1.0000   1.0000   1.0000   1.0000   1.0000
     1.0000   1.0000   1.0000   1.0000   1.0000   1.0000   1.0000   1.0000
     1.0000   1.0000   1.0000   1.0000   1.0000   1.0000   1.0000   1.0000
     1.0000   1.0000   1.0000   1.0000   1.0000   1.0000   1.0000   1.0000
     1.0000   1.0000   1.0000   1.0000   1.0000   1.0000   1.0000   1.0000
     1.0000   1.0000   1.0000   1.0000   1.0000   1.0000   1.0000   1.0000
     1.0000   1.0000   1.0000   1.0000   1.0000   1.0000   1.0000   1.0000
     1.0000   1.0000   1.0000   1.0000   0.0000   0.0000   0.0000   0.0000
     0.0000   0.0000   0.0000   0.0000   0.0000   0.0000   0.0000   0.0000
     0.0000   0.0000

          k = 0.0000 0.2351 0.0000 ( 35823 PWs)   bands (ev):

   -80.7700 -80.7697 -80.7685 -80.7680 -47.6567 -47.6558 -47.6551 -47.6543
   -46.7489 -46.7487 -46.7475 -46.7468 -46.0697 -46.0690 -46.0680 -46.0674
   -42.7324 -42.7324 -42.7249 -42.7249 -15.0665 -15.0442 -14.8006 -14.7952
   -14.7792 -14.7677 -14.7467 -14.7424 -14.7283 -14.7168 -14.6695 -14.6687
   -14.5633 -14.4253 -14.1294 -14.0549 -11.8547 -11.8339 -11.8067 -11.7939
   -11.7805 -11.7587 -11.6775 -11.6532 -11.6285 -11.6186 -11.6159 -11.6065
    -1.8380  -1.4032  -1.2918  -1.2206  -0.2877   0.1551   0.1927   0.2758
     0.5245   0.5735   0.8322   0.8762   0.9714   1.0161   1.0549   1.3089
     2.1523   2.3209   2.5682   2.6398   2.7035   2.8976   2.9691   3.0727
     3.1015   3.1344   3.3284   3.4295   3.4786   3.5364   3.7193   3.7637
     3.7967   3.8201   3.8570   3.9796   4.0776   4.1893   4.2045   4.3983
     4.4609   4.5191   4.5796   4.8940   4.9846   5.0220   5.3405   5.5722
     5.6415   5.6472   5.7868   5.8938   6.0118   6.1769   6.1773   6.2771
     6.2817   6.4969   6.8431   6.8887   6.8937   6.9559   6.9821   7.1239
     7.1364   7.5000   7.5734   7.5770  10.8911  12.8189  13.0675  13.3461
    13.9325  14.3212  14.5943  15.2053  15.5300  15.5448  15.6881  15.7674
    15.8073  16.0080

     occupation numbers 
     1.0000   1.0000   1.0000   1.0000   1.0000   1.0000   1.0000   1.0000
     1.0000   1.0000   1.0000   1.0000   1.0000   1.0000   1.0000   1.0000
     1.0000   1.0000   1.0000   1.0000   1.0000   1.0000   1.0000   1.0000
     1.0000   1.0000   1.0000   1.0000   1.0000   1.0000   1.0000   1.0000
     1.0000   1.0000   1.0000   1.0000   1.0000   1.0000   1.0000   1.0000
     1.0000   1.0000   1.0000   1.0000   1.0000   1.0000   1.0000   1.0000
     1.0000   1.0000   1.0000   1.0000   1.0000   1.0000   1.0000   1.0000
     1.0000   1.0000   1.0000   1.0000   1.0000   1.0000   1.0000   1.0000
     1.0000   1.0000   1.0000   1.0000   1.0000   1.0000   1.0000   1.0000
     1.0000   1.0000   1.0000   1.0000   1.0000   1.0000   1.0000   1.0000
     1.0000   1.0000   1.0000   1.0000   1.0000   1.0000   1.0000   1.0000
     1.0000   1.0000   1.0000   1.0000   1.0000   1.0000   1.0000   1.0000
     1.0000   1.0000   1.0000   1.0000   1.0000   1.0000   1.0000   1.0000
     1.0000   1.0000   1.0000   1.0000   1.0000   1.0000   1.0000   1.0000
     1.0000   1.0000   1.0000   1.0000   0.0000   0.0000   0.0000   0.0000
     0.0000   0.0000   0.0000   0.0000   0.0000   0.0000   0.0000   0.0000
     0.0000   0.0000

          k = 0.0000 0.2351 0.2298 ( 35841 PWs)   bands (ev):

   -80.7700 -80.7697 -80.7685 -80.7680 -47.6567 -47.6558 -47.6551 -47.6543
   -46.7489 -46.7487 -46.7475 -46.7468 -46.0697 -46.0690 -46.0680 -46.0674
   -42.7324 -42.7324 -42.7249 -42.7249 -15.0599 -15.0381 -14.8332 -14.8169
   -14.7835 -14.7698 -14.7498 -14.7483 -14.7131 -14.7096 -14.6688 -14.6685
   -14.5174 -14.3908 -14.1391 -14.0687 -11.8639 -11.8415 -11.8154 -11.7908
   -11.7769 -11.7575 -11.6996 -11.6417 -11.6396 -11.6253 -11.6140 -11.6104
    -1.8157  -1.4033  -1.2929  -1.2110  -0.2247   0.1762   0.2505   0.3316
     0.5249   0.5922   0.8451   0.8888   0.9563   1.0079   1.0254   1.2915
     2.1511   2.3014   2.5595   2.6492   2.6564   2.8640   2.9124   3.0239
     3.0249   3.1997   3.3164   3.3911   3.4895   3.4955   3.6761   3.7347
     3.7650   3.8003   3.9260   4.0724   4.1317   4.1627   4.1966   4.3948
     4.4288   4.5493   4.6212   4.9043   4.9872   5.0483   5.3298   5.5434
     5.6323   5.6398   5.7896   5.9119   6.0173   6.1317   6.1645   6.2296
     6.3192   6.5100   6.8751   6.8989   6.9270   6.9714   6.9914   7.0974
     7.1183   7.4718   7.5671   7.5845  11.0367  12.8612  13.1608  13.3672
    13.9567  14.2153  14.7791  14.8989  15.4266  15.4439  15.5199  15.7607
    15.9272  15.9439

     occupation numbers 
     1.0000   1.0000   1.0000   1.0000   1.0000   1.0000   1.0000   1.0000
     1.0000   1.0000   1.0000   1.0000   1.0000   1.0000   1.0000   1.0000
     1.0000   1.0000   1.0000   1.0000   1.0000   1.0000   1.0000   1.0000
     1.0000   1.0000   1.0000   1.0000   1.0000   1.0000   1.0000   1.0000
     1.0000   1.0000   1.0000   1.0000   1.0000   1.0000   1.0000   1.0000
     1.0000   1.0000   1.0000   1.0000   1.0000   1.0000   1.0000   1.0000
     1.0000   1.0000   1.0000   1.0000   1.0000   1.0000   1.0000   1.0000
     1.0000   1.0000   1.0000   1.0000   1.0000   1.0000   1.0000   1.0000
     1.0000   1.0000   1.0000   1.0000   1.0000   1.0000   1.0000   1.0000
     1.0000   1.0000   1.0000   1.0000   1.0000   1.0000   1.0000   1.0000
     1.0000   1.0000   1.0000   1.0000   1.0000   1.0000   1.0000   1.0000
     1.0000   1.0000   1.0000   1.0000   1.0000   1.0000   1.0000   1.0000
     1.0000   1.0000   1.0000   1.0000   1.0000   1.0000   1.0000   1.0000
     1.0000   1.0000   1.0000   1.0000   1.0000   1.0000   1.0000   1.0000
     1.0000   1.0000   1.0000   1.0000   0.0000   0.0000   0.0000   0.0000
     0.0000   0.0000   0.0000   0.0000   0.0000   0.0000   0.0000   0.0000
     0.0000   0.0000

          k = 0.0000 0.2351 0.4597 ( 35884 PWs)   bands (ev):

   -80.7700 -80.7697 -80.7685 -80.7680 -47.6566 -47.6559 -47.6550 -47.6544
   -46.7489 -46.7487 -46.7475 -46.7468 -46.0697 -46.0690 -46.0680 -46.0674
   -42.7324 -42.7324 -42.7249 -42.7249 -15.0508 -15.0298 -14.8698 -14.8532
   -14.7813 -14.7694 -14.7512 -14.7503 -14.7062 -14.7054 -14.6691 -14.6688
   -14.4228 -14.3232 -14.1619 -14.1022 -11.8843 -11.8639 -11.8454 -11.7707
   -11.7675 -11.7609 -11.7468 -11.6640 -11.6454 -11.6253 -11.6205 -11.6044
    -1.7512  -1.3984  -1.3019  -1.2096  -0.0329   0.2446   0.3925   0.4598
     0.5456   0.6358   0.8753   0.9278   0.9282   0.9629   1.0024   1.2398
     2.1366   2.2628   2.5000   2.5716   2.6632   2.7626   2.7771   2.9162
     3.0139   3.1688   3.2834   3.3083   3.4430   3.4747   3.5118   3.6182
     3.7218   3.7686   4.0512   4.0732   4.2064   4.2807   4.2886   4.3953
     4.4366   4.6050   4.6488   4.9346   5.0088   5.1201   5.2972   5.4855
     5.6175   5.6237   5.7979   5.9293   6.0330   6.0389   6.1275   6.1731
     6.3940   6.5505   6.9120   6.9272   6.9819   7.0062   7.0318   7.0543
     7.0605   7.4139   7.5528   7.5881  11.4243  12.9761  13.3067  13.5070
    14.0441  14.1385  14.4421  15.0233  15.1454  15.1843  15.3420  15.4635
    15.6733  15.9439

     occupation numbers 
     1.0000   1.0000   1.0000   1.0000   1.0000   1.0000   1.0000   1.0000
     1.0000   1.0000   1.0000   1.0000   1.0000   1.0000   1.0000   1.0000
     1.0000   1.0000   1.0000   1.0000   1.0000   1.0000   1.0000   1.0000
     1.0000   1.0000   1.0000   1.0000   1.0000   1.0000   1.0000   1.0000
     1.0000   1.0000   1.0000   1.0000   1.0000   1.0000   1.0000   1.0000
     1.0000   1.0000   1.0000   1.0000   1.0000   1.0000   1.0000   1.0000
     1.0000   1.0000   1.0000   1.0000   1.0000   1.0000   1.0000   1.0000
     1.0000   1.0000   1.0000   1.0000   1.0000   1.0000   1.0000   1.0000
     1.0000   1.0000   1.0000   1.0000   1.0000   1.0000   1.0000   1.0000
     1.0000   1.0000   1.0000   1.0000   1.0000   1.0000   1.0000   1.0000
     1.0000   1.0000   1.0000   1.0000   1.0000   1.0000   1.0000   1.0000
     1.0000   1.0000   1.0000   1.0000   1.0000   1.0000   1.0000   1.0000
     1.0000   1.0000   1.0000   1.0000   1.0000   1.0000   1.0000   1.0000
     1.0000   1.0000   1.0000   1.0000   1.0000   1.0000   1.0000   1.0000
     1.0000   1.0000   1.0000   1.0000   0.0000   0.0000   0.0000   0.0000
     0.0000   0.0000   0.0000   0.0000   0.0000   0.0000   0.0000   0.0000
     0.0000   0.0000

          k = 0.0000 0.2351 0.6895 ( 35919 PWs)   bands (ev):

   -80.7700 -80.7697 -80.7685 -80.7680 -47.6566 -47.6560 -47.6549 -47.6545
   -46.7489 -46.7487 -46.7475 -46.7468 -46.0696 -46.0690 -46.0680 -46.0675
   -42.7324 -42.7324 -42.7249 -42.7249 -15.0557 -15.0385 -14.8658 -14.8592
   -14.7754 -14.7667 -14.7520 -14.7499 -14.7056 -14.7055 -14.6705 -14.6701
   -14.3431 -14.2837 -14.1739 -14.1277 -11.9047 -11.9032 -11.8672 -11.8241
   -11.7553 -11.7459 -11.7399 -11.6871 -11.6672 -11.6459 -11.6053 -11.5956
    -1.6523  -1.3804  -1.3359  -1.2468   0.2573   0.3588   0.5002   0.5448
     0.6714   0.6768   0.8238   0.8351   0.9568   1.0744   1.0922   1.1670
     2.0877   2.2456   2.3546   2.4681   2.6074   2.6903   2.6967   2.8803
     2.9012   3.0278   3.0733   3.1966   3.4025   3.4215   3.5320   3.5925
     3.6612   3.7557   3.9534   4.0059   4.3114   4.4173   4.4425   4.4522
     4.5217   4.6844   4.6872   4.9139   5.0383   5.1702   5.2791   5.4500
     5.6163   5.6174   5.8130   5.9056   5.9578   6.0389   6.0853   6.1486
     6.5077   6.6237   6.9016   6.9501   6.9529   6.9674   7.0305   7.0507
     7.1504   7.3507   7.5424   7.5794  11.9476  13.1540  13.2591  13.7752
    14.0635  14.1312  14.2794  14.7926  14.8196  15.1385  15.1977  15.3672
    15.4637  15.8609

     occupation numbers 
     1.0000   1.0000   1.0000   1.0000   1.0000   1.0000   1.0000   1.0000
     1.0000   1.0000   1.0000   1.0000   1.0000   1.0000   1.0000   1.0000
     1.0000   1.0000   1.0000   1.0000   1.0000   1.0000   1.0000   1.0000
     1.0000   1.0000   1.0000   1.0000   1.0000   1.0000   1.0000   1.0000
     1.0000   1.0000   1.0000   1.0000   1.0000   1.0000   1.0000   1.0000
     1.0000   1.0000   1.0000   1.0000   1.0000   1.0000   1.0000   1.0000
     1.0000   1.0000   1.0000   1.0000   1.0000   1.0000   1.0000   1.0000
     1.0000   1.0000   1.0000   1.0000   1.0000   1.0000   1.0000   1.0000
     1.0000   1.0000   1.0000   1.0000   1.0000   1.0000   1.0000   1.0000
     1.0000   1.0000   1.0000   1.0000   1.0000   1.0000   1.0000   1.0000
     1.0000   1.0000   1.0000   1.0000   1.0000   1.0000   1.0000   1.0000
     1.0000   1.0000   1.0000   1.0000   1.0000   1.0000   1.0000   1.0000
     1.0000   1.0000   1.0000   1.0000   1.0000   1.0000   1.0000   1.0000
     1.0000   1.0000   1.0000   1.0000   1.0000   1.0000   1.0000   1.0000
     1.0000   1.0000   1.0000   1.0000   0.0000   0.0000   0.0000   0.0000
     0.0000   0.0000   0.0000   0.0000   0.0000   0.0000   0.0000   0.0000
     0.0000   0.0000

          k = 0.0000 0.2351 0.9194 ( 35896 PWs)   bands (ev):

   -80.7700 -80.7697 -80.7685 -80.7680 -47.6565 -47.6560 -47.6548 -47.6545
   -46.7489 -46.7487 -46.7475 -46.7468 -46.0696 -46.0690 -46.0679 -46.0675
   -42.7324 -42.7324 -42.7249 -42.7249 -15.0626 -15.0560 -14.8476 -14.8469
   -14.7670 -14.7642 -14.7513 -14.7490 -14.7075 -14.7073 -14.6719 -14.6717
   -14.3126 -14.2948 -14.1516 -14.1320 -11.9271 -11.9215 -11.8798 -11.8714
   -11.7414 -11.7399 -11.7079 -11.6976 -11.6889 -11.6742 -11.5947 -11.5917
    -1.5326  -1.4159  -1.3471  -1.3013   0.4478   0.5091   0.5650   0.6144
     0.6954   0.7274   0.7640   0.7840   0.9943   1.0616   1.2439   1.2443
     2.0560   2.1616   2.2630   2.3461   2.5074   2.5605   2.7156   2.7497
     2.9016   2.9575   2.9972   3.0615   3.3742   3.3936   3.5584   3.5719
     3.7199   3.7751   3.8663   3.8803   4.3876   4.4407   4.4728   4.5104
     4.6459   4.7538   4.8289   4.9125   4.9816   5.0714   5.3598   5.4250
     5.6319   5.6327   5.8374   5.8706   5.9238   5.9720   6.1054   6.1320
     6.6472   6.7260   6.7905   6.8413   6.9626   6.9653   7.0591   7.0650
     7.2310   7.2925   7.5462   7.5623  12.5005  12.9808  13.3922  13.6436
    14.1455  14.1499  14.4119  14.5728  14.7527  15.0578  15.1256  15.2293
    15.4196  15.6030

     occupation numbers 
     1.0000   1.0000   1.0000   1.0000   1.0000   1.0000   1.0000   1.0000
     1.0000   1.0000   1.0000   1.0000   1.0000   1.0000   1.0000   1.0000
     1.0000   1.0000   1.0000   1.0000   1.0000   1.0000   1.0000   1.0000
     1.0000   1.0000   1.0000   1.0000   1.0000   1.0000   1.0000   1.0000
     1.0000   1.0000   1.0000   1.0000   1.0000   1.0000   1.0000   1.0000
     1.0000   1.0000   1.0000   1.0000   1.0000   1.0000   1.0000   1.0000
     1.0000   1.0000   1.0000   1.0000   1.0000   1.0000   1.0000   1.0000
     1.0000   1.0000   1.0000   1.0000   1.0000   1.0000   1.0000   1.0000
     1.0000   1.0000   1.0000   1.0000   1.0000   1.0000   1.0000   1.0000
     1.0000   1.0000   1.0000   1.0000   1.0000   1.0000   1.0000   1.0000
     1.0000   1.0000   1.0000   1.0000   1.0000   1.0000   1.0000   1.0000
     1.0000   1.0000   1.0000   1.0000   1.0000   1.0000   1.0000   1.0000
     1.0000   1.0000   1.0000   1.0000   1.0000   1.0000   1.0000   1.0000
     1.0000   1.0000   1.0000   1.0000   1.0000   1.0000   1.0000   1.0000
     1.0000   1.0000   1.0000   1.0000   0.0000   0.0000   0.0000   0.0000
     0.0000   0.0000   0.0000   0.0000   0.0000   0.0000   0.0000   0.0000
     0.0000   0.0000

          k = 0.0000 0.4701 0.0000 ( 35853 PWs)   bands (ev):

   -80.7700 -80.7697 -80.7685 -80.7680 -47.6566 -47.6559 -47.6550 -47.6544
   -46.7489 -46.7487 -46.7475 -46.7468 -46.0696 -46.0690 -46.0680 -46.0674
   -42.7314 -42.7313 -42.7260 -42.7260 -15.0310 -15.0163 -14.8490 -14.8277
   -14.7905 -14.7859 -14.7439 -14.7428 -14.7353 -14.7321 -14.6818 -14.6816
   -14.4522 -14.3462 -14.1551 -14.1206 -11.8900 -11.8548 -11.8255 -11.7840
   -11.7611 -11.7524 -11.7005 -11.6528 -11.6394 -11.6238 -11.5878 -11.5804
    -1.7461  -1.3680  -1.3431  -1.2106  -0.1677   0.1949   0.2261   0.2310
     0.5853   0.6410   0.7371   0.8565   0.9830   1.0913   1.1211   1.2253
     2.2196   2.3282   2.3772   2.6636   2.7458   2.7461   2.7755   2.9963
     3.0604   3.2482   3.2829   3.3931   3.4169   3.4926   3.7175   3.7852
     3.7947   3.9054   3.9279   3.9449   4.1286   4.2236   4.2350   4.4685
     4.5169   4.5211   4.5712   4.8182   4.9188   5.0000   5.2440   5.3415
     5.6159   5.6765   5.7181   5.8237   6.0367   6.2046   6.2556   6.3149
     6.3901   6.4431   6.7897   6.8125   6.8980   6.9764   6.9901   7.0312
     7.1244   7.6089   7.6121   7.6417  11.3245  13.0565  13.0970  13.3232
    13.9945  14.4302  14.5582  15.1649  15.3962  15.5197  15.7904  15.8296
    15.8889  16.0693

     occupation numbers 
     1.0000   1.0000   1.0000   1.0000   1.0000   1.0000   1.0000   1.0000
     1.0000   1.0000   1.0000   1.0000   1.0000   1.0000   1.0000   1.0000
     1.0000   1.0000   1.0000   1.0000   1.0000   1.0000   1.0000   1.0000
     1.0000   1.0000   1.0000   1.0000   1.0000   1.0000   1.0000   1.0000
     1.0000   1.0000   1.0000   1.0000   1.0000   1.0000   1.0000   1.0000
     1.0000   1.0000   1.0000   1.0000   1.0000   1.0000   1.0000   1.0000
     1.0000   1.0000   1.0000   1.0000   1.0000   1.0000   1.0000   1.0000
     1.0000   1.0000   1.0000   1.0000   1.0000   1.0000   1.0000   1.0000
     1.0000   1.0000   1.0000   1.0000   1.0000   1.0000   1.0000   1.0000
     1.0000   1.0000   1.0000   1.0000   1.0000   1.0000   1.0000   1.0000
     1.0000   1.0000   1.0000   1.0000   1.0000   1.0000   1.0000   1.0000
     1.0000   1.0000   1.0000   1.0000   1.0000   1.0000   1.0000   1.0000
     1.0000   1.0000   1.0000   1.0000   1.0000   1.0000   1.0000   1.0000
     1.0000   1.0000   1.0000   1.0000   1.0000   1.0000   1.0000   1.0000
     1.0000   1.0000   1.0000   1.0000   0.0000   0.0000   0.0000   0.0000
     0.0000   0.0000   0.0000   0.0000   0.0000   0.0000   0.0000   0.0000
     0.0000   0.0000

          k = 0.0000 0.4701 0.2298 ( 35845 PWs)   bands (ev):

   -80.7700 -80.7697 -80.7685 -80.7680 -47.6566 -47.6559 -47.6550 -47.6544
   -46.7489 -46.7487 -46.7475 -46.7468 -46.0696 -46.0690 -46.0680 -46.0675
   -42.7314 -42.7313 -42.7260 -42.7260 -15.0251 -15.0105 -14.8625 -14.8421
   -14.7883 -14.7835 -14.7463 -14.7444 -14.7322 -14.7301 -14.6829 -14.6824
   -14.4240 -14.3255 -14.1610 -14.1274 -11.8927 -11.8605 -11.8262 -11.7979
   -11.7629 -11.7413 -11.7274 -11.6447 -11.6375 -11.6356 -11.5887 -11.5857
    -1.7248  -1.3586  -1.3421  -1.2058  -0.1097   0.2183   0.2637   0.3021
     0.6041   0.6300   0.7682   0.8689   0.9650   1.0763   1.0945   1.2107
     2.2145   2.2926   2.3673   2.6125   2.7045   2.7053   2.7943   2.9936
     3.0082   3.2471   3.3096   3.3934   3.4036   3.4360   3.7244   3.7663
     3.8086   3.8509   3.9362   3.9389   4.1801   4.2152   4.2797   4.4714
     4.4914   4.5427   4.5877   4.8282   4.9382   4.9958   5.2332   5.3368
     5.6060   5.6475   5.7547   5.8308   6.0436   6.1968   6.2492   6.2936
     6.3710   6.4515   6.7832   6.8100   6.9203   6.9813   6.9926   7.0291
     7.1456   7.5735   7.6340   7.6373  11.4558  13.1003  13.1546  13.4293
    14.0086  14.3424  14.7196  14.8367  15.4296  15.4804  15.6341  15.8752
    15.9227  15.9237

     occupation numbers 
     1.0000   1.0000   1.0000   1.0000   1.0000   1.0000   1.0000   1.0000
     1.0000   1.0000   1.0000   1.0000   1.0000   1.0000   1.0000   1.0000
     1.0000   1.0000   1.0000   1.0000   1.0000   1.0000   1.0000   1.0000
     1.0000   1.0000   1.0000   1.0000   1.0000   1.0000   1.0000   1.0000
     1.0000   1.0000   1.0000   1.0000   1.0000   1.0000   1.0000   1.0000
     1.0000   1.0000   1.0000   1.0000   1.0000   1.0000   1.0000   1.0000
     1.0000   1.0000   1.0000   1.0000   1.0000   1.0000   1.0000   1.0000
     1.0000   1.0000   1.0000   1.0000   1.0000   1.0000   1.0000   1.0000
     1.0000   1.0000   1.0000   1.0000   1.0000   1.0000   1.0000   1.0000
     1.0000   1.0000   1.0000   1.0000   1.0000   1.0000   1.0000   1.0000
     1.0000   1.0000   1.0000   1.0000   1.0000   1.0000   1.0000   1.0000
     1.0000   1.0000   1.0000   1.0000   1.0000   1.0000   1.0000   1.0000
[...]
     atom    2 type  2   force =     0.00000000    0.00000000    0.00000000
     atom    3 type  2   force =     0.00000000   -0.00000000    0.00000000
     atom    4 type  2   force =     0.00000000    0.00000000    0.00000000
     atom    5 type  1   force =    -0.05279440    0.00000000    0.03628326
     atom    6 type  1   force =     0.05276779    0.00000000    0.03627481
     atom    7 type  1   force =     0.05279440   -0.00000000   -0.03628326
     atom    8 type  1   force =    -0.05276779    0.00000000   -0.03627481
     atom    9 type  4   force =     0.02056761    0.00000000    0.02046740
     atom   10 type  4   force =    -0.02048120    0.00000000    0.02039769
     atom   11 type  4   force =    -0.02056761    0.00000000   -0.02046740
     atom   12 type  4   force =     0.02048120    0.00000000   -0.02039769
     atom   13 type  3   force =     0.16841603    0.00000000   -1.46464938
     atom   14 type  3   force =    -0.16840255    0.00000000   -1.46466245
     atom   15 type  3   force =    -0.16841603    0.00000000    1.46464938
     atom   16 type  3   force =     0.16840255    0.00000000    1.46466245
     atom   17 type  3   force =     1.17939335    0.00000000   -0.69701785
     atom   18 type  3   force =    -1.17940363    0.00000000   -0.69706209
     atom   19 type  3   force =    -1.17939335    0.00000000    0.69701785
     atom   20 type  3   force =     1.17940363    0.00000000    0.69706209
     atom   21 type  3   force =    -0.63319147   -1.03062519    0.71073615
     atom   22 type  3   force =     0.63322411    1.03063957    0.71072670
     atom   23 type  3   force =     0.63319147   -1.03062519   -0.71073615
     atom   24 type  3   force =    -0.63322411    1.03063957   -0.71072670
     atom   25 type  3   force =     0.63319147    1.03062519   -0.71073615
     atom   26 type  3   force =    -0.63322411   -1.03063957   -0.71072670
     atom   27 type  3   force =    -0.63319147    1.03062519    0.71073615
     atom   28 type  3   force =     0.63322411   -1.03063957    0.71072670
     The ionic contribution  to forces
     atom    1 type  2   force =     0.00042983   -0.00007093    0.00021887
     atom    2 type  2   force =    -0.00024266    0.00020029    0.00004940
     atom    3 type  2   force =     0.00055431    0.00019659    0.00027828
     atom    4 type  2   force =    -0.00011819   -0.00007463   -0.00001002
     atom    5 type  1   force =     3.00067888   -0.00078876   -1.45312713
     atom    6 type  1   force =    -2.99875631    0.00076859   -1.45272881
     atom    7 type  1   force =    -3.00111199    0.00076859    1.45320562
     atom    8 type  1   force =     2.99889937   -0.00078876    1.45256009
     atom    9 type  4   force =    -0.52155139   -0.00018598    2.10395406
     atom   10 type  4   force =     0.52253766    0.00017327    2.10328951
     atom   11 type  4   force =     0.52166569    0.00017327   -2.10403664
     atom   12 type  4   force =    -0.52267553   -0.00018598   -2.10325095
     atom   13 type  3   force =    -3.78790495   -0.00025527    1.26598432
     atom   14 type  3   force =     3.78864374    0.00019636    1.26651761
     atom   15 type  3   force =     3.78814907    0.00019636   -1.26595171
     atom   16 type  3   force =    -3.78879448   -0.00025527   -1.26649395
     atom   17 type  3   force =    -1.60522324   -0.00024736    2.98327026
     atom   18 type  3   force =     1.60646397    0.00018922    2.98339982
     atom   19 type  3   force =     1.60501644    0.00018922   -2.98333551
     atom   20 type  3   force =    -1.60615975   -0.00024736   -2.98334189
     atom   21 type  3   force =     0.81333247    2.61719185   -1.32129451
     atom   22 type  3   force =    -0.81272198   -2.61695761   -1.32156565
     atom   23 type  3   force =    -0.81354988    2.61756824    1.32086011
     atom   24 type  3   force =     0.81268915   -2.61747469    1.32135292
     atom   25 type  3   force =    -0.81343762   -2.61712773    1.32107689
     atom   26 type  3   force =     0.81259083    2.61705844    1.32155765
     atom   27 type  3   force =     0.81343079   -2.61760809   -1.32108978
     atom   28 type  3   force =    -0.81283424    2.61739812   -1.32134886
     The local contribution  to forces
     atom    1 type  2   force =    -0.00000000   -0.00000000    0.00000000
     atom    2 type  2   force =    -0.00472058   -0.00016220   -0.00226313
     atom    3 type  2   force =     0.00008509   -0.00190147    0.00004007
     atom    4 type  2   force =    -0.00463550   -0.00173927   -0.00230320
     atom    5 type  1   force =    -2.96038608   -0.00891328    1.40740060
     atom    6 type  1   force =     2.93834966   -0.00222833    1.40671478
     atom    7 type  1   force =     2.93867513   -0.00222832   -1.41801092
     atom    8 type  1   force =    -2.95660793   -0.00891329   -1.41766805
     atom    9 type  4   force =     0.50670874   -0.00001863   -2.08374264
     atom   10 type  4   force =    -0.50771160   -0.00000466   -2.08299475
     atom   11 type  4   force =    -0.50672976   -0.00000466    2.08381597
     atom   12 type  4   force =     0.50772135   -0.00001861    2.08313186
     atom   13 type  3   force =     3.61624802   -0.00206693    0.20274253
     atom   14 type  3   force =    -3.62168369   -0.00051673    0.20198978
     atom   15 type  3   force =    -3.62081632   -0.00051673   -0.20490227
     atom   16 type  3   force =     3.61679852   -0.00206695   -0.20471134
     atom   17 type  3   force =     0.35632179   -0.00209267   -2.27932834
     atom   18 type  3   force =    -0.36143047   -0.00052317   -2.27960509
     atom   19 type  3   force =    -0.36022355   -0.00052317    2.27718105
     atom   20 type  3   force =     0.35726327   -0.00209270    2.27690879
     atom   21 type  3   force =    -0.14790865   -1.53797112    0.59795379
     atom   22 type  3   force =     0.14224893    1.53591493    0.59831419
     atom   23 type  3   force =     0.14287867   -1.53709038   -0.60035361
     atom   24 type  3   force =    -0.14728952    1.53451810   -0.60041158
     atom   25 type  3   force =     0.14293094    1.53622572   -0.60028732
     atom   26 type  3   force =    -0.14708045   -1.53797674   -0.60067675
     atom   27 type  3   force =    -0.14811774    1.53451250    0.59768861
     atom   28 type  3   force =     0.14219666   -1.53677959    0.59838048
     The core correction contribution to forces
     atom    1 type  2   force =     0.00000000    0.00000000    0.00000000
     atom    2 type  2   force =     0.00000000    0.00000000    0.00000000
     atom    3 type  2   force =     0.00000000    0.00000000    0.00000000
     atom    4 type  2   force =     0.00000000    0.00000000    0.00000000
     atom    5 type  1   force =     0.00442101    0.00026888   -0.00106511
     atom    6 type  1   force =    -0.00372180    0.00006721   -0.00108097
     atom    7 type  1   force =    -0.00365183    0.00006722    0.00147169
     atom    8 type  1   force =     0.00434857    0.00026888    0.00145810
     atom    9 type  4   force =    -0.00213101    0.00000606   -0.00439074
     atom   10 type  4   force =     0.00213928    0.00000151   -0.00438419
     atom   11 type  4   force =     0.00214702    0.00000151    0.00439921
     atom   12 type  4   force =    -0.00212339    0.00000606    0.00439242
     atom   13 type  3   force =    -0.00212642   -0.00000112    0.01233666
     atom   14 type  3   force =     0.00212246   -0.00000028    0.01233670
     atom   15 type  3   force =     0.00212227   -0.00000028   -0.01234141
     atom   16 type  3   force =    -0.00212588   -0.00000112   -0.01234015
     atom   17 type  3   force =    -0.00870214   -0.00000115    0.00638490
     atom   18 type  3   force =     0.00869415   -0.00000029    0.00638400
     atom   19 type  3   force =     0.00869588   -0.00000029   -0.00638592
     atom   20 type  3   force =    -0.00870127   -0.00000115   -0.00638681
     atom   21 type  3   force =     0.00491894    0.00801308   -0.00616103
     atom   22 type  3   force =    -0.00492321   -0.00801732   -0.00616237
     atom   23 type  3   force =    -0.00492199    0.00801567    0.00616018
     atom   24 type  3   force =     0.00491959   -0.00801787    0.00615905
     atom   25 type  3   force =    -0.00492220   -0.00801688    0.00616029
     atom   26 type  3   force =     0.00491876    0.00801301    0.00615862
     atom   27 type  3   force =     0.00491977   -0.00801794   -0.00616146
     atom   28 type  3   force =    -0.00492301    0.00801611   -0.00616226
     The Hubbard contrib.    to forces
     atom    1 type  2   force =     0.00000000    0.00000000    0.00000000
     atom    2 type  2   force =     0.00000000    0.00000000    0.00000000
     atom    3 type  2   force =     0.00000000    0.00000000    0.00000000
     atom    4 type  2   force =     0.00000000    0.00000000    0.00000000
     atom    5 type  1   force =     0.00000000    0.00000000    0.00000000
     atom    6 type  1   force =     0.00000000    0.00000000    0.00000000
     atom    7 type  1   force =     0.00000000    0.00000000    0.00000000
     atom    8 type  1   force =     0.00000000    0.00000000    0.00000000
     atom    9 type  4   force =     0.00000000    0.00000000    0.00000000
     atom   10 type  4   force =     0.00000000    0.00000000    0.00000000
     atom   11 type  4   force =     0.00000000    0.00000000    0.00000000
     atom   12 type  4   force =     0.00000000    0.00000000    0.00000000
     atom   13 type  3   force =     0.00000000    0.00000000    0.00000000
     atom   14 type  3   force =     0.00000000    0.00000000    0.00000000
     atom   15 type  3   force =     0.00000000    0.00000000    0.00000000
     atom   16 type  3   force =     0.00000000    0.00000000    0.00000000
     atom   17 type  3   force =     0.00000000    0.00000000    0.00000000
     atom   18 type  3   force =     0.00000000    0.00000000    0.00000000
     atom   19 type  3   force =     0.00000000    0.00000000    0.00000000
     atom   20 type  3   force =     0.00000000    0.00000000    0.00000000
     atom   21 type  3   force =     0.00000000    0.00000000    0.00000000
     atom   22 type  3   force =     0.00000000    0.00000000    0.00000000
     atom   23 type  3   force =     0.00000000    0.00000000    0.00000000
     atom   24 type  3   force =     0.00000000    0.00000000    0.00000000
     atom   25 type  3   force =     0.00000000    0.00000000    0.00000000
     atom   26 type  3   force =     0.00000000    0.00000000    0.00000000
     atom   27 type  3   force =     0.00000000    0.00000000    0.00000000
     atom   28 type  3   force =     0.00000000    0.00000000    0.00000000
     The SCF correction term to forces
     atom    1 type  2   force =    -0.00000000    0.00000000   -0.00000000
     atom    2 type  2   force =     0.00000000    0.00000000    0.00000000
     atom    3 type  2   force =    -0.00000000    0.00000000   -0.00000000
     atom    4 type  2   force =     0.00000000    0.00000000    0.00000000
     atom    5 type  1   force =     0.00000326    0.00000000   -0.00000129
     atom    6 type  1   force =     0.00000352    0.00000000   -0.00000083
     atom    7 type  1   force =    -0.00000326   -0.00000000    0.00000129
     atom    8 type  1   force =    -0.00000351    0.00000001    0.00000084
     atom    9 type  4   force =     0.00000182    0.00000000   -0.00000050
     atom   10 type  4   force =     0.00000178   -0.00000000    0.00000020
     atom   11 type  4   force =    -0.00000182   -0.00000000    0.00000050
     atom   12 type  4   force =    -0.00000178    0.00000000   -0.00000020
     atom   13 type  3   force =     0.00000328    0.00000000    0.00000165
     atom   14 type  3   force =     0.00000429    0.00000000   -0.00000305
     atom   15 type  3   force =    -0.00000328   -0.00000000   -0.00000165
     atom   16 type  3   force =    -0.00000429    0.00000000    0.00000305
     atom   17 type  3   force =    -0.00000109    0.00000000   -0.00000140
     atom   18 type  3   force =    -0.00000415    0.00000000    0.00000199
     atom   19 type  3   force =     0.00000110   -0.00000000    0.00000140
     atom   20 type  3   force =     0.00000415    0.00000000   -0.00000199
     atom   21 type  3   force =     0.00000210   -0.00000366   -0.00000289
     atom   22 type  3   force =     0.00000224   -0.00000317    0.00000209
     atom   23 type  3   force =    -0.00000210   -0.00000366    0.00000289
     atom   24 type  3   force =    -0.00000224   -0.00000317   -0.00000209
     atom   25 type  3   force =    -0.00000210    0.00000366    0.00000289
     atom   26 type  3   force =    -0.00000224    0.00000317   -0.00000209
     atom   27 type  3   force =     0.00000210    0.00000366   -0.00000289
     atom   28 type  3   force =     0.00000224    0.00000317    0.00000209

     Total force =     0.270228     Total SCF correction =     0.000019


     Computing stress (Cartesian axis) and pressure


     negative rho (up, down):  0.000E+00 4.762E-04
          total   stress  (Ry/bohr**3)                   (kbar)     P=       99.13
   0.00086271   0.00000000   0.00000006          126.91        0.00        0.01
   0.00000000   0.00068524   0.00000000            0.00      100.80        0.00
   0.00000006   0.00000000   0.00047366            0.01        0.00       69.68

     kinetic stress (kbar)  32937.25      0.00     -0.00
                                0.00  32784.37      0.00
                               -0.00      0.00  32852.75

     local   stress (kbar)  -4745.52     -0.10      0.03
                               -0.10  -4716.55     -0.00
                                0.03     -0.00  -1655.29

     nonloc. stress (kbar)  -9842.49      0.00      0.00
                                0.00  -9919.35      0.00
                                0.00      0.00  -9779.57

     hartree stress (kbar)  15189.96     -0.00     -0.03
                               -0.00  15245.47      0.00
                               -0.03      0.00  13694.83

     exc-cor stress (kbar)  -3723.59      0.00      0.00
                                0.00  -3729.67     -0.00
                                0.00     -0.00  -3719.72

     corecor stress (kbar)  -3175.12     -0.00     -0.00
                               -0.00  -3159.45      0.00
                               -0.00      0.00  -3182.91

     ewald   stress (kbar) -26513.59      0.09      0.01
                                0.09 -26404.02      0.00
                                0.01      0.00 -28140.43

     hubbard stress (kbar)      0.00      0.00      0.00
                                0.00      0.00      0.00
                                0.00      0.00      0.00

     DFT-D   stress (kbar)      0.00      0.00      0.00
                                0.00      0.00      0.00
                                0.00      0.00      0.00

     XDM     stress (kbar)      0.00      0.00      0.00
                                0.00      0.00      0.00
                                0.00      0.00      0.00

     dft-nl  stress (kbar)      0.00      0.00      0.00
                                0.00      0.00      0.00
                                0.00      0.00      0.00

     TS-vdW  stress (kbar)      0.00      0.00      0.00
                                0.00      0.00      0.00
                                0.00      0.00      0.00



     init_run     :   1354.11s CPU   1625.95s WALL (       1 calls)
     electrons    : 132707.00s CPU 162560.06s WALL (       1 calls)
     forces       :    189.99s CPU    253.25s WALL (       1 calls)
     stress       :    937.71s CPU   1271.51s WALL (       1 calls)

     Called by init_run:
     wfcinit      :   1335.49s CPU   1599.94s WALL (       1 calls)
     wfcinit:atom :      1.49s CPU      1.82s WALL (     184 calls)
     wfcinit:wfcr :   1327.42s CPU   1589.83s WALL (     184 calls)
     potinit      :      7.52s CPU     10.13s WALL (       1 calls)
     hinit0       :      6.47s CPU      9.02s WALL (       1 calls)

     Called by electrons:
     c_bands      : 111971.42s CPU 137100.25s WALL (      39 calls)
     sum_band     :  20363.60s CPU  24987.82s WALL (      39 calls)
     v_of_rho     :    100.81s CPU    121.27s WALL (      40 calls)
     v_h          :      6.51s CPU      8.04s WALL (      40 calls)
     v_xc         :     98.39s CPU    118.96s WALL (      42 calls)
     newd         :    149.47s CPU    206.11s WALL (      40 calls)
     PAW_pot      :     41.56s CPU     49.53s WALL (      40 calls)
     mix_rho      :     61.10s CPU     73.90s WALL (      39 calls)

     Called by c_bands:
     init_us_2    :    205.52s CPU    259.38s WALL (   14904 calls)
     cegterg      : 110951.64s CPU 135810.80s WALL (    7176 calls)

     Called by sum_band:
     sum_band:wei :      0.47s CPU      0.76s WALL (      39 calls)
     sum_band:loo :  19974.08s CPU  24486.87s WALL (      39 calls)
     sum_band:buf :     64.48s CPU     89.02s WALL (    7176 calls)
     sum_band:ini :     85.54s CPU     99.51s WALL (    7176 calls)
     sum_band:cal :   1638.91s CPU   1998.61s WALL (    7176 calls)
     sum_band:bec :      9.70s CPU     10.57s WALL (    7176 calls)
     addusdens    :    312.14s CPU    417.67s WALL (      39 calls)
     addusd:skk   :      2.03s CPU      2.33s WALL (     117 calls)
     addusd:dgemm :     99.13s CPU    154.56s WALL (     234 calls)
     addusd:qvan2 :    206.47s CPU    254.74s WALL (     234 calls)

     Called by *egterg:
     cdiaghg      :   2830.56s CPU   3512.47s WALL (   27983 calls)
     cegterg:over :   5348.78s CPU   6434.08s WALL (   20807 calls)
     cegterg:upda :   1229.23s CPU   1538.43s WALL (   20807 calls)
     cegterg:last :   2538.62s CPU   3192.30s WALL (   12879 calls)
     h_psi        :  93498.82s CPU 114488.95s WALL (   28167 calls)
     s_psi        :   2357.95s CPU   2943.59s WALL (   28167 calls)
     g_psi        :     17.29s CPU     21.08s WALL (   20807 calls)

     Called by h_psi:
     h_psi:calbec :   4535.68s CPU   5501.39s WALL (   28167 calls)
     vloc_psi     :  86425.67s CPU 105764.70s WALL (   28167 calls)
     add_vuspsi   :   2441.62s CPU   3104.20s WALL (   28167 calls)

     General routines
     calbec       :   6385.74s CPU   7778.76s WALL (   36263 calls)
     fft          :    113.46s CPU    136.88s WALL (    1038 calls)
     ffts         :     12.59s CPU     14.78s WALL (     158 calls)
     fftw         : 104175.59s CPU 127591.99s WALL ( 5354030 calls)
     interpolate  :     14.98s CPU     17.59s WALL (      80 calls)

     Parallel routines
     fft_scatt_xy :    559.12s CPU    562.15s WALL ( 5355226 calls)
     fft_scatt_yz : 101151.90s CPU 124530.03s WALL ( 5355226 calls)

     PAW routines
     PAW_pot      :     41.56s CPU     49.53s WALL (      40 calls)
     PAW_symme    :      3.87s CPU      4.48s WALL (      79 calls)

     PWSCF        :   1d13h33m CPU   1d22h 2m WALL


   This run was terminated on:  18:56:48  31Jan2023            

=------------------------------------------------------------------------------=
   JOB DONE.
=------------------------------------------------------------------------------=
Note: The following floating-point exceptions are signalling: IEEE_UNDERFLOW_FLAG IEEE_DENORMAL
Note: The following floating-point exceptions are signalling: IEEE_DENORMAL
Note: The following floating-point exceptions are signalling: IEEE_DENORMAL
Note: The following floating-point exceptions are signalling: IEEE_DENORMAL
Note: The following floating-point exceptions are signalling: IEEE_DENORMAL
Note: The following floating-point exceptions are signalling: IEEE_DENORMAL
Note: The following floating-point exceptions are signalling: IEEE_DENORMAL
Note: The following floating-point exceptions are signalling: IEEE_DENORMAL
Note: The following floating-point exceptions are signalling: IEEE_INVALID_FLAG IEEE_DENORMAL
