
     Program PWSCF v.6.7MaX starts on  4Feb2023 at 11:33:44 

     This program is part of the open-source Quantum ESPRESSO suite
     for quantum simulation of materials; please cite
         "P. Giannozzi et al., J. Phys.:Condens. Matter 21 395502 (2009);
         "P. Giannozzi et al., J. Phys.:Condens. Matter 29 465901 (2017);
          URL http://www.quantum-espresso.org", 
     in publications or presentations arising from this work. More details at
     http://www.quantum-espresso.org/quote

     Parallel version (MPI), running on    12 processors

     MPI processes distributed on     1 nodes
     R & G space division:  proc/nbgrp/npool/nimage =      12
     Reading input from scale_2dab-04.in

     Current dimensions of program PWSCF are:
     Max number of different atomic species (ntypx) = 10
     Max number of k-points (npk) =  40000
     Max angular momentum in pseudopotentials (lmaxx) =  3
     Message from routine read_pp_mesh:
     mesh size missing, using the one in header
     file Fe.pbe-spn-kjpaw_psl.0.2.1.UPF: wavefunction(s)  3D renormalized
     file O.pbe-n-kjpaw_psl.0.1.UPF: wavefunction(s)  2P renormalized

     Subspace diagonalization in iterative solution of the eigenvalue problem:
     a serial algorithm will be used

     Message from routine setup:
     using ibrav=0 with symmetry is DISCOURAGED, use correct ibrav instead

     Parallelization info
     --------------------
     sticks:   dense  smooth     PW     G-vecs:    dense   smooth      PW
     Min        1767     654    176               115205    25960    3643
     Max        1769     655    178               115206    25962    3645
     Sum       21211    7849   2123              1382463   311535   43725



     bravais-lattice index     =            0
     lattice parameter (alat)  =      20.3206  a.u.
     unit-cell volume          =    2306.7820 (a.u.)^3
     number of atoms/cell      =           28
     number of atomic types    =            4
     number of electrons       =       216.00
     number of Kohn-Sham states=          130
     kinetic-energy cutoff     =     100.0000  Ry
     charge density cutoff     =    1080.0000  Ry
     scf convergence threshold =      2.0E-10
     mixing beta               =       0.4000
     number of iterations used =            8  plain     mixing
     Exchange-correlation= PBE
                           (   1   4   3   4   0   0   0)

     celldm(1)=  20.320559  celldm(2)=   0.000000  celldm(3)=   0.000000
     celldm(4)=   0.000000  celldm(5)=   0.000000  celldm(6)=   0.000000

     crystal axes: (cart. coord. in units of alat)
               a(1) = (   1.000000   0.000000   0.000000 )  
               a(2) = (   0.000000   0.597590   0.000000 )  
               a(3) = (   0.000000   0.000000   0.460041 )  

     reciprocal axes: (cart. coord. in units 2 pi/alat)
               b(1) = (  1.000000  0.000000  0.000000 )  
               b(2) = (  0.000000  1.673388  0.000000 )  
               b(3) = (  0.000000  0.000000  2.173720 )  


     PseudoPot. # 1 for Fe read from file:
     /opt/QEpot/SSSP_precision_pseudos/Fe.pbe-spn-kjpaw_psl.0.2.1.UPF
     MD5 check sum: e86618425769142926afa95317d90200
     Pseudo is Projector augmented-wave + core cor, Zval = 16.0
     Generated using "atomic" code by A. Dal Corso  v.5.0.99 svn rev. 10869
     Shape of augmentation charge: PSQ
     Using radial grid of 1191 points,  6 beta functions with: 
                l(1) =   0
                l(2) =   0
                l(3) =   1
                l(4) =   1
                l(5) =   2
                l(6) =   2
     Q(r) pseudized with 0 coefficients 


     PseudoPot. # 2 for Na read from file:
     /opt/QEpot/SSSP_precision_pseudos/Na_ONCV_PBE-1.0.oncvpsp.upf
     MD5 check sum: 24a298df0a6742ae313db96548fdb2a4
     Pseudo is Norm-conserving, Zval =  9.0
     Generated using ONCVPSP code by D. R. Hamann
     Using radial grid of 1992 points,  4 beta functions with: 
                l(1) =   0
                l(2) =   0
                l(3) =   1
                l(4) =   1

     PseudoPot. # 3 for O  read from file:
     /opt/QEpot/SSSP_precision_pseudos/O.pbe-n-kjpaw_psl.0.1.UPF
     MD5 check sum: 0234752ac141de4415c5fc33072bef88
     Pseudo is Projector augmented-wave + core cor, Zval =  6.0
     Generated using "atomic" code by A. Dal Corso  v.5.0.99 svn rev. 10869
     Shape of augmentation charge: BESSEL
     Using radial grid of 1095 points,  4 beta functions with: 
                l(1) =   0
                l(2) =   0
                l(3) =   1
                l(4) =   1
     Q(r) pseudized with 0 coefficients 


     PseudoPot. # 4 for P  read from file:
     /opt/QEpot/SSSP_precision_pseudos/P.pbe-n-rrkjus_psl.1.0.0.UPF
     MD5 check sum: 8b930f418f0a4573dca56cd030ffe088
     Pseudo is Ultrasoft + core correction, Zval =  5.0
     Generated using "atomic" code by A. Dal Corso  v.5.1
     Using radial grid of 1147 points,  6 beta functions with: 
                l(1) =   0
                l(2) =   0
                l(3) =   1
                l(4) =   1
                l(5) =   2
                l(6) =   2
     Q(r) pseudized with 0 coefficients 


     atomic species   valence    mass     pseudopotential
        Fe            16.00    55.84500     Fe( 1.00)
        Na             9.00    22.98977     Na( 1.00)
        O              6.00    15.99940     O ( 1.00)
        P              5.00    30.97376     P ( 1.00)

     Starting magnetic structure 
     atomic species   magnetization
        Fe           0.312
        Na           0.000
        O            0.000
        P            0.000

      4 Sym. Ops., with inversion, found ( 2 have fractional translation)


                                    s                        frac. trans.

      isym =  1     identity                                     

 cryst.   s( 1) = (     1          0          0      )
                  (     0          1          0      )
                  (     0          0          1      )

 cart.    s( 1) = (  1.0000000  0.0000000  0.0000000 )
                  (  0.0000000  1.0000000  0.0000000 )
                  (  0.0000000  0.0000000  1.0000000 )


      isym =  2     180 deg rotation - cart. axis [0,1,0]        

 cryst.   s( 2) = (    -1          0          0      )    f =(  0.0000000 )
                  (     0          1          0      )       ( -0.4999980 )
                  (     0          0         -1      )       (  0.0000000 )

 cart.    s( 2) = ( -1.0000000  0.0000000  0.0000000 )    f =(  0.0000000 )
                  (  0.0000000  1.0000000  0.0000000 )       ( -0.2987938 )
                  (  0.0000000  0.0000000 -1.0000000 )       (  0.0000000 )


      isym =  3     inversion                                    

 cryst.   s( 3) = (    -1          0          0      )
                  (     0         -1          0      )
                  (     0          0         -1      )

 cart.    s( 3) = ( -1.0000000  0.0000000  0.0000000 )
                  (  0.0000000 -1.0000000  0.0000000 )
                  (  0.0000000  0.0000000 -1.0000000 )


      isym =  4     inv. 180 deg rotation - cart. axis [0,1,0]   

 cryst.   s( 4) = (     1          0          0      )    f =(  0.0000000 )
                  (     0         -1          0      )       (  0.4999980 )
                  (     0          0          1      )       (  0.0000000 )

 cart.    s( 4) = (  1.0000000  0.0000000  0.0000000 )    f =(  0.0000000 )
                  (  0.0000000 -1.0000000  0.0000000 )       (  0.2987938 )
                  (  0.0000000  0.0000000  1.0000000 )       (  0.0000000 )


   Cartesian axes

     site n.     atom                  positions (alat units)
         1           Na  tau(   1) = (   0.0000000   0.0000000   0.0000000  )
         2           Na  tau(   2) = (   0.5000030   0.5975899   0.2300218  )
         3           Na  tau(   3) = (   1.0000000   0.2987962   0.0000000  )
         4           Na  tau(   4) = (   0.5000030   0.2987962   0.2300218  )
         5           Fe  tau(   5) = (   0.2870220   0.4481948   0.4537778  )
         6           Fe  tau(   6) = (   0.2129810   0.1493981   0.2237560  )
         7           Fe  tau(   7) = (   0.7129840   0.1493981   0.0062658  )
         8           Fe  tau(   8) = (   0.7870240   0.4481948   0.2362875  )
         9           P   tau(   9) = (   0.1083410   0.4481948   0.2036200  )
        10           P   tau(  10) = (   0.3916620   0.1493981   0.4336418  )
        11           P   tau(  11) = (   0.8916650   0.1493981   0.2564235  )
        12           P   tau(  12) = (   0.6083440   0.4481948   0.0264017  )
        13           O   tau(  13) = (   0.1140120   0.4481948   0.3461457  )
        14           O   tau(  14) = (   0.3859910   0.1493981   0.1161240  )
        15           O   tau(  15) = (   0.8859940   0.1493981   0.1138983  )
        16           O   tau(  16) = (   0.6140150   0.4481948   0.3439201  )
        17           O   tau(  17) = (   0.4685140   0.4481948   0.0741218  )
        18           O   tau(  18) = (   0.0314890   0.1493981   0.3041436  )
        19           O   tau(  19) = (   0.5314920   0.1493981   0.3859218  )
        20           O   tau(  20) = (   0.9685170   0.4481948   0.1559000  )
        21           O   tau(  21) = (   0.1755910   0.5644936   0.1434472  )
        22           O   tau(  22) = (   0.3244120   0.0330993   0.3734689  )
        23           O   tau(  23) = (   0.8244150   0.2656968   0.3165964  )
        24           O   tau(  24) = (   0.6755940   0.3318961   0.0865746  )
        25           O   tau(  25) = (   0.8244150   0.0330993   0.3165964  )
        26           O   tau(  26) = (   0.6755940   0.5644936   0.0865746  )
        27           O   tau(  27) = (   0.1755910   0.3318961   0.1434472  )
        28           O   tau(  28) = (   0.3244120   0.2656968   0.3734689  )

   Crystallographic axes

     site n.     atom                  positions (cryst. coord.)
         1           Na  tau(   1) = (  0.0000000  0.0000000  0.0000000  )
         2           Na  tau(   2) = (  0.5000030  1.0000000  0.5000030  )
         3           Na  tau(   3) = (  1.0000000  0.5000020  0.0000000  )
         4           Na  tau(   4) = (  0.5000030  0.5000020  0.5000030  )
         5           Fe  tau(   5) = (  0.2870220  0.7500040  0.9863860  )
         6           Fe  tau(   6) = (  0.2129810  0.2500010  0.4863830  )
         7           Fe  tau(   7) = (  0.7129840  0.2500010  0.0136200  )
         8           Fe  tau(   8) = (  0.7870240  0.7500040  0.5136230  )
         9           P   tau(   9) = (  0.1083410  0.7500040  0.4426130  )
        10           P   tau(  10) = (  0.3916620  0.2500010  0.9426160  )
        11           P   tau(  11) = (  0.8916650  0.2500010  0.5573930  )
        12           P   tau(  12) = (  0.6083440  0.7500040  0.0573900  )
        13           O   tau(  13) = (  0.1140120  0.7500040  0.7524240  )
        14           O   tau(  14) = (  0.3859910  0.2500010  0.2524210  )
        15           O   tau(  15) = (  0.8859940  0.2500010  0.2475830  )
        16           O   tau(  16) = (  0.6140150  0.7500040  0.7475860  )
        17           O   tau(  17) = (  0.4685140  0.7500040  0.1611200  )
        18           O   tau(  18) = (  0.0314890  0.2500010  0.6611230  )
        19           O   tau(  19) = (  0.5314920  0.2500010  0.8388860  )
        20           O   tau(  20) = (  0.9685170  0.7500040  0.3388830  )
        21           O   tau(  21) = (  0.1755910  0.9446170  0.3118140  )
        22           O   tau(  22) = (  0.3244120  0.0553880  0.8118170  )
        23           O   tau(  23) = (  0.8244150  0.4446140  0.6881920  )
        24           O   tau(  24) = (  0.6755940  0.5553910  0.1881890  )
        25           O   tau(  25) = (  0.8244150  0.0553880  0.6881920  )
        26           O   tau(  26) = (  0.6755940  0.9446170  0.1881890  )
        27           O   tau(  27) = (  0.1755910  0.5553910  0.3118140  )
        28           O   tau(  28) = (  0.3244120  0.4446140  0.8118170  )

     number of k points=    92  Marzari-Vanderbilt smearing, width (Ry)=  0.0073
                       cart. coord. in units 2pi/alat
        k(    1) = (   0.0000000   0.0000000   0.0000000), wk =   0.0031746
        k(    2) = (   0.0000000   0.0000000   0.2415245), wk =   0.0063492
        k(    3) = (   0.0000000   0.0000000   0.4830489), wk =   0.0063492
        k(    4) = (   0.0000000   0.0000000   0.7245734), wk =   0.0063492
        k(    5) = (   0.0000000   0.0000000   0.9660979), wk =   0.0063492
        k(    6) = (   0.0000000   0.2390555   0.0000000), wk =   0.0063492
        k(    7) = (   0.0000000   0.2390555   0.2415245), wk =   0.0126984
        k(    8) = (   0.0000000   0.2390555   0.4830489), wk =   0.0126984
        k(    9) = (   0.0000000   0.2390555   0.7245734), wk =   0.0126984
        k(   10) = (   0.0000000   0.2390555   0.9660979), wk =   0.0126984
        k(   11) = (   0.0000000   0.4781110   0.0000000), wk =   0.0063492
        k(   12) = (   0.0000000   0.4781110   0.2415245), wk =   0.0126984
        k(   13) = (   0.0000000   0.4781110   0.4830489), wk =   0.0126984
        k(   14) = (   0.0000000   0.4781110   0.7245734), wk =   0.0126984
        k(   15) = (   0.0000000   0.4781110   0.9660979), wk =   0.0126984
        k(   16) = (   0.0000000   0.7171664   0.0000000), wk =   0.0063492
        k(   17) = (   0.0000000   0.7171664   0.2415245), wk =   0.0126984
        k(   18) = (   0.0000000   0.7171664   0.4830489), wk =   0.0126984
        k(   19) = (   0.0000000   0.7171664   0.7245734), wk =   0.0126984
        k(   20) = (   0.0000000   0.7171664   0.9660979), wk =   0.0126984
        k(   21) = (   0.2000000   0.0000000   0.0000000), wk =   0.0063492
        k(   22) = (   0.2000000   0.0000000   0.2415245), wk =   0.0063492
        k(   23) = (   0.2000000   0.0000000   0.4830489), wk =   0.0063492
        k(   24) = (   0.2000000   0.0000000   0.7245734), wk =   0.0063492
        k(   25) = (   0.2000000   0.0000000   0.9660979), wk =   0.0063492
        k(   26) = (   0.2000000   0.2390555   0.0000000), wk =   0.0126984
        k(   27) = (   0.2000000   0.2390555   0.2415245), wk =   0.0126984
        k(   28) = (   0.2000000   0.2390555   0.4830489), wk =   0.0126984
        k(   29) = (   0.2000000   0.2390555   0.7245734), wk =   0.0126984
        k(   30) = (   0.2000000   0.2390555   0.9660979), wk =   0.0126984
        k(   31) = (   0.2000000   0.4781110   0.0000000), wk =   0.0126984
        k(   32) = (   0.2000000   0.4781110   0.2415245), wk =   0.0126984
        k(   33) = (   0.2000000   0.4781110   0.4830489), wk =   0.0126984
        k(   34) = (   0.2000000   0.4781110   0.7245734), wk =   0.0126984
        k(   35) = (   0.2000000   0.4781110   0.9660979), wk =   0.0126984
        k(   36) = (   0.2000000   0.7171664   0.0000000), wk =   0.0126984
        k(   37) = (   0.2000000   0.7171664   0.2415245), wk =   0.0126984
        k(   38) = (   0.2000000   0.7171664   0.4830489), wk =   0.0126984
        k(   39) = (   0.2000000   0.7171664   0.7245734), wk =   0.0126984
        k(   40) = (   0.2000000   0.7171664   0.9660979), wk =   0.0126984
        k(   41) = (   0.4000000   0.0000000   0.0000000), wk =   0.0063492
        k(   42) = (   0.4000000   0.0000000   0.2415245), wk =   0.0063492
        k(   43) = (   0.4000000   0.0000000   0.4830489), wk =   0.0063492
        k(   44) = (   0.4000000   0.0000000   0.7245734), wk =   0.0063492
        k(   45) = (   0.4000000   0.0000000   0.9660979), wk =   0.0063492
        k(   46) = (   0.4000000   0.2390555   0.0000000), wk =   0.0126984
        k(   47) = (   0.4000000   0.2390555   0.2415245), wk =   0.0126984
        k(   48) = (   0.4000000   0.2390555   0.4830489), wk =   0.0126984
        k(   49) = (   0.4000000   0.2390555   0.7245734), wk =   0.0126984
        k(   50) = (   0.4000000   0.2390555   0.9660979), wk =   0.0126984
        k(   51) = (   0.4000000   0.4781110   0.0000000), wk =   0.0126984
        k(   52) = (   0.4000000   0.4781110   0.2415245), wk =   0.0126984
        k(   53) = (   0.4000000   0.4781110   0.4830489), wk =   0.0126984
        k(   54) = (   0.4000000   0.4781110   0.7245734), wk =   0.0126984
        k(   55) = (   0.4000000   0.4781110   0.9660979), wk =   0.0126984
        k(   56) = (   0.4000000   0.7171664   0.0000000), wk =   0.0126984
        k(   57) = (   0.4000000   0.7171664   0.2415245), wk =   0.0126984
        k(   58) = (   0.4000000   0.7171664   0.4830489), wk =   0.0126984
        k(   59) = (   0.4000000   0.7171664   0.7245734), wk =   0.0126984
        k(   60) = (   0.4000000   0.7171664   0.9660979), wk =   0.0126984
        k(   61) = (  -0.2000000   0.0000000   0.2415245), wk =   0.0063492
        k(   62) = (  -0.2000000   0.0000000   0.4830489), wk =   0.0063492
        k(   63) = (  -0.2000000   0.0000000   0.7245734), wk =   0.0063492
        k(   64) = (  -0.2000000   0.0000000   0.9660979), wk =   0.0063492
        k(   65) = (  -0.2000000  -0.2390555   0.2415245), wk =   0.0126984
        k(   66) = (  -0.2000000  -0.2390555   0.4830489), wk =   0.0126984
        k(   67) = (  -0.2000000  -0.2390555   0.7245734), wk =   0.0126984
        k(   68) = (  -0.2000000  -0.2390555   0.9660979), wk =   0.0126984
        k(   69) = (  -0.2000000  -0.4781110   0.2415245), wk =   0.0126984
        k(   70) = (  -0.2000000  -0.4781110   0.4830489), wk =   0.0126984
        k(   71) = (  -0.2000000  -0.4781110   0.7245734), wk =   0.0126984
        k(   72) = (  -0.2000000  -0.4781110   0.9660979), wk =   0.0126984
        k(   73) = (  -0.2000000  -0.7171664   0.2415245), wk =   0.0126984
        k(   74) = (  -0.2000000  -0.7171664   0.4830489), wk =   0.0126984
        k(   75) = (  -0.2000000  -0.7171664   0.7245734), wk =   0.0126984
        k(   76) = (  -0.2000000  -0.7171664   0.9660979), wk =   0.0126984
        k(   77) = (  -0.4000000   0.0000000   0.2415245), wk =   0.0063492
        k(   78) = (  -0.4000000   0.0000000   0.4830489), wk =   0.0063492
        k(   79) = (  -0.4000000   0.0000000   0.7245734), wk =   0.0063492
        k(   80) = (  -0.4000000   0.0000000   0.9660979), wk =   0.0063492
        k(   81) = (  -0.4000000  -0.2390555   0.2415245), wk =   0.0126984
        k(   82) = (  -0.4000000  -0.2390555   0.4830489), wk =   0.0126984
        k(   83) = (  -0.4000000  -0.2390555   0.7245734), wk =   0.0126984
        k(   84) = (  -0.4000000  -0.2390555   0.9660979), wk =   0.0126984
        k(   85) = (  -0.4000000  -0.4781110   0.2415245), wk =   0.0126984
        k(   86) = (  -0.4000000  -0.4781110   0.4830489), wk =   0.0126984
        k(   87) = (  -0.4000000  -0.4781110   0.7245734), wk =   0.0126984
        k(   88) = (  -0.4000000  -0.4781110   0.9660979), wk =   0.0126984
        k(   89) = (  -0.4000000  -0.7171664   0.2415245), wk =   0.0126984
        k(   90) = (  -0.4000000  -0.7171664   0.4830489), wk =   0.0126984
        k(   91) = (  -0.4000000  -0.7171664   0.7245734), wk =   0.0126984
        k(   92) = (  -0.4000000  -0.7171664   0.9660979), wk =   0.0126984

                       cryst. coord.
        k(    1) = (   0.0000000   0.0000000   0.0000000), wk =   0.0031746
        k(    2) = (   0.0000000   0.0000000   0.1111111), wk =   0.0063492
        k(    3) = (   0.0000000   0.0000000   0.2222222), wk =   0.0063492
        k(    4) = (   0.0000000   0.0000000   0.3333333), wk =   0.0063492
        k(    5) = (   0.0000000   0.0000000   0.4444444), wk =   0.0063492
        k(    6) = (   0.0000000   0.1428571   0.0000000), wk =   0.0063492
        k(    7) = (   0.0000000   0.1428571   0.1111111), wk =   0.0126984
        k(    8) = (   0.0000000   0.1428571   0.2222222), wk =   0.0126984
        k(    9) = (   0.0000000   0.1428571   0.3333333), wk =   0.0126984
        k(   10) = (   0.0000000   0.1428571   0.4444444), wk =   0.0126984
        k(   11) = (   0.0000000   0.2857143   0.0000000), wk =   0.0063492
        k(   12) = (   0.0000000   0.2857143   0.1111111), wk =   0.0126984
        k(   13) = (   0.0000000   0.2857143   0.2222222), wk =   0.0126984
        k(   14) = (   0.0000000   0.2857143   0.3333333), wk =   0.0126984
        k(   15) = (   0.0000000   0.2857143   0.4444444), wk =   0.0126984
        k(   16) = (   0.0000000   0.4285714   0.0000000), wk =   0.0063492
        k(   17) = (   0.0000000   0.4285714   0.1111111), wk =   0.0126984
        k(   18) = (   0.0000000   0.4285714   0.2222222), wk =   0.0126984
        k(   19) = (   0.0000000   0.4285714   0.3333333), wk =   0.0126984
        k(   20) = (   0.0000000   0.4285714   0.4444444), wk =   0.0126984
        k(   21) = (   0.2000000   0.0000000   0.0000000), wk =   0.0063492
        k(   22) = (   0.2000000   0.0000000   0.1111111), wk =   0.0063492
        k(   23) = (   0.2000000   0.0000000   0.2222222), wk =   0.0063492
        k(   24) = (   0.2000000   0.0000000   0.3333333), wk =   0.0063492
        k(   25) = (   0.2000000   0.0000000   0.4444444), wk =   0.0063492
        k(   26) = (   0.2000000   0.1428571   0.0000000), wk =   0.0126984
        k(   27) = (   0.2000000   0.1428571   0.1111111), wk =   0.0126984
        k(   28) = (   0.2000000   0.1428571   0.2222222), wk =   0.0126984
        k(   29) = (   0.2000000   0.1428571   0.3333333), wk =   0.0126984
        k(   30) = (   0.2000000   0.1428571   0.4444444), wk =   0.0126984
        k(   31) = (   0.2000000   0.2857143   0.0000000), wk =   0.0126984
        k(   32) = (   0.2000000   0.2857143   0.1111111), wk =   0.0126984
        k(   33) = (   0.2000000   0.2857143   0.2222222), wk =   0.0126984
        k(   34) = (   0.2000000   0.2857143   0.3333333), wk =   0.0126984
        k(   35) = (   0.2000000   0.2857143   0.4444444), wk =   0.0126984
        k(   36) = (   0.2000000   0.4285714   0.0000000), wk =   0.0126984
        k(   37) = (   0.2000000   0.4285714   0.1111111), wk =   0.0126984
        k(   38) = (   0.2000000   0.4285714   0.2222222), wk =   0.0126984
        k(   39) = (   0.2000000   0.4285714   0.3333333), wk =   0.0126984
        k(   40) = (   0.2000000   0.4285714   0.4444444), wk =   0.0126984
        k(   41) = (   0.4000000   0.0000000   0.0000000), wk =   0.0063492
        k(   42) = (   0.4000000   0.0000000   0.1111111), wk =   0.0063492
        k(   43) = (   0.4000000   0.0000000   0.2222222), wk =   0.0063492
        k(   44) = (   0.4000000   0.0000000   0.3333333), wk =   0.0063492
        k(   45) = (   0.4000000   0.0000000   0.4444444), wk =   0.0063492
        k(   46) = (   0.4000000   0.1428571   0.0000000), wk =   0.0126984
        k(   47) = (   0.4000000   0.1428571   0.1111111), wk =   0.0126984
        k(   48) = (   0.4000000   0.1428571   0.2222222), wk =   0.0126984
        k(   49) = (   0.4000000   0.1428571   0.3333333), wk =   0.0126984
        k(   50) = (   0.4000000   0.1428571   0.4444444), wk =   0.0126984
        k(   51) = (   0.4000000   0.2857143   0.0000000), wk =   0.0126984
        k(   52) = (   0.4000000   0.2857143   0.1111111), wk =   0.0126984
        k(   53) = (   0.4000000   0.2857143   0.2222222), wk =   0.0126984
        k(   54) = (   0.4000000   0.2857143   0.3333333), wk =   0.0126984
        k(   55) = (   0.4000000   0.2857143   0.4444444), wk =   0.0126984
        k(   56) = (   0.4000000   0.4285714   0.0000000), wk =   0.0126984
        k(   57) = (   0.4000000   0.4285714   0.1111111), wk =   0.0126984
        k(   58) = (   0.4000000   0.4285714   0.2222222), wk =   0.0126984
        k(   59) = (   0.4000000   0.4285714   0.3333333), wk =   0.0126984
        k(   60) = (   0.4000000   0.4285714   0.4444444), wk =   0.0126984
        k(   61) = (  -0.2000000   0.0000000   0.1111111), wk =   0.0063492
        k(   62) = (  -0.2000000   0.0000000   0.2222222), wk =   0.0063492
        k(   63) = (  -0.2000000   0.0000000   0.3333333), wk =   0.0063492
        k(   64) = (  -0.2000000   0.0000000   0.4444444), wk =   0.0063492
        k(   65) = (  -0.2000000  -0.1428571   0.1111111), wk =   0.0126984
        k(   66) = (  -0.2000000  -0.1428571   0.2222222), wk =   0.0126984
        k(   67) = (  -0.2000000  -0.1428571   0.3333333), wk =   0.0126984
        k(   68) = (  -0.2000000  -0.1428571   0.4444444), wk =   0.0126984
        k(   69) = (  -0.2000000  -0.2857143   0.1111111), wk =   0.0126984
        k(   70) = (  -0.2000000  -0.2857143   0.2222222), wk =   0.0126984
        k(   71) = (  -0.2000000  -0.2857143   0.3333333), wk =   0.0126984
        k(   72) = (  -0.2000000  -0.2857143   0.4444444), wk =   0.0126984
        k(   73) = (  -0.2000000  -0.4285714   0.1111111), wk =   0.0126984
        k(   74) = (  -0.2000000  -0.4285714   0.2222222), wk =   0.0126984
        k(   75) = (  -0.2000000  -0.4285714   0.3333333), wk =   0.0126984
        k(   76) = (  -0.2000000  -0.4285714   0.4444444), wk =   0.0126984
        k(   77) = (  -0.4000000   0.0000000   0.1111111), wk =   0.0063492
        k(   78) = (  -0.4000000   0.0000000   0.2222222), wk =   0.0063492
        k(   79) = (  -0.4000000   0.0000000   0.3333333), wk =   0.0063492
        k(   80) = (  -0.4000000   0.0000000   0.4444444), wk =   0.0063492
        k(   81) = (  -0.4000000  -0.1428571   0.1111111), wk =   0.0126984
        k(   82) = (  -0.4000000  -0.1428571   0.2222222), wk =   0.0126984
        k(   83) = (  -0.4000000  -0.1428571   0.3333333), wk =   0.0126984
        k(   84) = (  -0.4000000  -0.1428571   0.4444444), wk =   0.0126984
        k(   85) = (  -0.4000000  -0.2857143   0.1111111), wk =   0.0126984
        k(   86) = (  -0.4000000  -0.2857143   0.2222222), wk =   0.0126984
        k(   87) = (  -0.4000000  -0.2857143   0.3333333), wk =   0.0126984
        k(   88) = (  -0.4000000  -0.2857143   0.4444444), wk =   0.0126984
        k(   89) = (  -0.4000000  -0.4285714   0.1111111), wk =   0.0126984
        k(   90) = (  -0.4000000  -0.4285714   0.2222222), wk =   0.0126984
        k(   91) = (  -0.4000000  -0.4285714   0.3333333), wk =   0.0126984
        k(   92) = (  -0.4000000  -0.4285714   0.4444444), wk =   0.0126984

     Dense  grid:  1382463 G-vectors     FFT dimensions: ( 216, 128, 100)

     Smooth grid:   311535 G-vectors     FFT dimensions: ( 135,  80,  60)

     Dynamical RAM for                 wfc:       6.44 MB

     Dynamical RAM for     wfc (w. buffer):    1191.20 MB

     Dynamical RAM for           str. fact:       7.03 MB

     Dynamical RAM for           local pot:       0.00 MB

     Dynamical RAM for          nlocal pot:      15.06 MB

     Dynamical RAM for                qrad:      10.54 MB

     Dynamical RAM for          rho,v,vnew:      21.94 MB

     Dynamical RAM for               rhoin:       7.31 MB

     Dynamical RAM for            rho*nmix:      56.25 MB

     Dynamical RAM for           G-vectors:       6.79 MB

     Dynamical RAM for          h,s,v(r/c):       3.09 MB

     Dynamical RAM for          <psi|beta>:       0.60 MB

     Dynamical RAM for                 psi:      12.88 MB

     Dynamical RAM for                hpsi:      12.88 MB

     Dynamical RAM for                spsi:      12.88 MB

     Dynamical RAM for      wfcinit/wfcrot:      15.59 MB

     Dynamical RAM for           addusdens:     356.85 MB

     Dynamical RAM for          addusforce:     409.72 MB

     Dynamical RAM for         addusstress:     355.98 MB

     Estimated static dynamical RAM per process >       1.30 GB

     Estimated max dynamical RAM per process >       1.71 GB

     Estimated total dynamical RAM >      20.46 GB

     Check: negative core charge=   -0.000003
     Generating pointlists ...
     new r_m :   0.0819 (alat units)  1.6638 (a.u.) for type    1
     new r_m :   0.0900 (alat units)  1.8291 (a.u.) for type    2
     new r_m :   0.0588 (alat units)  1.1956 (a.u.) for type    3
     new r_m :   0.0588 (alat units)  1.1956 (a.u.) for type    4

     Initial potential from superposition of free atoms

     starting charge  215.97252, renormalised to  216.00000
     Starting wfcs are  152 randomized atomic wfcs
     Checking if some PAW data can be deallocated... 
       PAW data deallocated on   10 nodes for type:  1
       PAW data deallocated on    4 nodes for type:  3

     total cpu time spent up to now is     1670.6 secs

     Self-consistent Calculation

     iteration #  1     ecut=   100.00 Ry     beta= 0.40
     Davidson diagonalization with overlap
     ethr =  1.00E-02,  avg # of iterations =  3.2

     negative rho (up, down):  0.000E+00 4.588E-05

     total cpu time spent up to now is     6394.0 secs

     total energy              =   -2380.60904171 Ry
     estimated scf accuracy    <       5.76688282 Ry

     total magnetization       =    16.00 Bohr mag/cell
     absolute magnetization    =    16.02 Bohr mag/cell

     iteration #  2     ecut=   100.00 Ry     beta= 0.40
     Davidson diagonalization with overlap
     ethr =  2.67E-03,  avg # of iterations =  2.0

     negative rho (up, down):  0.000E+00 1.601E-04

     total cpu time spent up to now is    10916.7 secs

     total energy              =   -2381.99912161 Ry
     estimated scf accuracy    <       0.62550782 Ry

     total magnetization       =    16.00 Bohr mag/cell
     absolute magnetization    =    16.01 Bohr mag/cell

     iteration #  3     ecut=   100.00 Ry     beta= 0.40
     Davidson diagonalization with overlap
     ethr =  2.90E-04,  avg # of iterations =  9.2

     negative rho (up, down):  0.000E+00 1.857E-04

     total cpu time spent up to now is    15949.9 secs

     total energy              =   -2382.04829344 Ry
     estimated scf accuracy    <       3.91433883 Ry

     total magnetization       =    16.03 Bohr mag/cell
     absolute magnetization    =    16.07 Bohr mag/cell

     iteration #  4     ecut=   100.00 Ry     beta= 0.40
     Davidson diagonalization with overlap
     ethr =  2.90E-04,  avg # of iterations =  2.0

     negative rho (up, down):  0.000E+00 3.355E-04

     total cpu time spent up to now is    19798.7 secs

     total energy              =   -2382.09817443 Ry
     estimated scf accuracy    <       1.07775544 Ry

     total magnetization       =    16.00 Bohr mag/cell
     absolute magnetization    =    16.06 Bohr mag/cell

     iteration #  5     ecut=   100.00 Ry     beta= 0.40
     Davidson diagonalization with overlap
     ethr =  2.90E-04,  avg # of iterations =  1.5

     negative rho (up, down):  0.000E+00 5.110E-04

     total cpu time spent up to now is    23466.6 secs

     total energy              =   -2382.01898827 Ry
     estimated scf accuracy    <       2.37649805 Ry

     total magnetization       =    16.00 Bohr mag/cell
     absolute magnetization    =    16.06 Bohr mag/cell

     iteration #  6     ecut=   100.00 Ry     beta= 0.40
     Davidson diagonalization with overlap
     ethr =  2.90E-04,  avg # of iterations =  2.0

     negative rho (up, down):  0.000E+00 5.218E-04

     total cpu time spent up to now is    27236.3 secs

     total energy              =   -2382.19698540 Ry
     estimated scf accuracy    <       2.77534568 Ry

     total magnetization       =    16.00 Bohr mag/cell
     absolute magnetization    =    16.07 Bohr mag/cell

     iteration #  7     ecut=   100.00 Ry     beta= 0.40
     Davidson diagonalization with overlap
     ethr =  2.90E-04,  avg # of iterations =  1.0

     negative rho (up, down):  0.000E+00 5.366E-04

     total cpu time spent up to now is    30801.3 secs

     total energy              =   -2382.16458631 Ry
     estimated scf accuracy    <       0.84864412 Ry

     total magnetization       =    16.00 Bohr mag/cell
     absolute magnetization    =    16.07 Bohr mag/cell

     iteration #  8     ecut=   100.00 Ry     beta= 0.40
     Davidson diagonalization with overlap
     ethr =  2.90E-04,  avg # of iterations =  1.0

     negative rho (up, down):  0.000E+00 5.369E-04

     total cpu time spent up to now is    34396.8 secs

     total energy              =   -2382.20538112 Ry
     estimated scf accuracy    <       0.41684012 Ry

     total magnetization       =    16.00 Bohr mag/cell
     absolute magnetization    =    16.07 Bohr mag/cell

     iteration #  9     ecut=   100.00 Ry     beta= 0.40
     Davidson diagonalization with overlap
     ethr =  1.93E-04,  avg # of iterations =  1.0

     negative rho (up, down):  0.000E+00 5.396E-04

     total cpu time spent up to now is    37989.6 secs

     total energy              =   -2382.20671102 Ry
     estimated scf accuracy    <       0.22236969 Ry

     total magnetization       =    16.00 Bohr mag/cell
     absolute magnetization    =    16.08 Bohr mag/cell

     iteration # 10     ecut=   100.00 Ry     beta= 0.40
     Davidson diagonalization with overlap
     ethr =  1.03E-04,  avg # of iterations =  1.2

     negative rho (up, down):  0.000E+00 5.480E-04

     total cpu time spent up to now is    41607.4 secs

     total energy              =   -2382.20049725 Ry
     estimated scf accuracy    <       0.40296726 Ry

     total magnetization       =    16.00 Bohr mag/cell
     absolute magnetization    =    16.08 Bohr mag/cell

     iteration # 11     ecut=   100.00 Ry     beta= 0.40
     Davidson diagonalization with overlap
     ethr =  1.03E-04,  avg # of iterations =  1.0

     negative rho (up, down):  0.000E+00 5.432E-04

     total cpu time spent up to now is    45189.2 secs

     total energy              =   -2382.20257785 Ry
     estimated scf accuracy    <       0.26407592 Ry

     total magnetization       =    16.00 Bohr mag/cell
     absolute magnetization    =    16.09 Bohr mag/cell

     iteration # 12     ecut=   100.00 Ry     beta= 0.40
     Davidson diagonalization with overlap
     ethr =  1.03E-04,  avg # of iterations =  1.0

     negative rho (up, down):  0.000E+00 5.411E-04

     total cpu time spent up to now is    48789.2 secs

     total energy              =   -2382.20341783 Ry
     estimated scf accuracy    <       0.11992259 Ry

     total magnetization       =    16.00 Bohr mag/cell
     absolute magnetization    =    16.09 Bohr mag/cell

     iteration # 13     ecut=   100.00 Ry     beta= 0.40
     Davidson diagonalization with overlap
     ethr =  5.55E-05,  avg # of iterations =  1.2

     negative rho (up, down):  0.000E+00 5.417E-04

     total cpu time spent up to now is    52341.4 secs

     total energy              =   -2382.20766850 Ry
     estimated scf accuracy    <       0.08069396 Ry

     total magnetization       =    16.00 Bohr mag/cell
     absolute magnetization    =    16.09 Bohr mag/cell

     iteration # 14     ecut=   100.00 Ry     beta= 0.40
     Davidson diagonalization with overlap
     ethr =  3.74E-05,  avg # of iterations =  1.3

     negative rho (up, down):  0.000E+00 5.319E-04

     total cpu time spent up to now is    55896.4 secs

     total energy              =   -2382.21022812 Ry
     estimated scf accuracy    <       0.08826505 Ry

     total magnetization       =    16.00 Bohr mag/cell
     absolute magnetization    =    16.09 Bohr mag/cell

     iteration # 15     ecut=   100.00 Ry     beta= 0.40
     Davidson diagonalization with overlap
     ethr =  3.74E-05,  avg # of iterations =  1.2

     negative rho (up, down):  0.000E+00 5.304E-04

     total cpu time spent up to now is    59444.7 secs

     total energy              =   -2382.21010286 Ry
     estimated scf accuracy    <       0.08893051 Ry

     total magnetization       =    16.00 Bohr mag/cell
     absolute magnetization    =    16.08 Bohr mag/cell

     iteration # 16     ecut=   100.00 Ry     beta= 0.40
     Davidson diagonalization with overlap
     ethr =  3.74E-05,  avg # of iterations =  1.0

     negative rho (up, down):  0.000E+00 5.274E-04

     total cpu time spent up to now is    62980.7 secs

     total energy              =   -2382.21491705 Ry
     estimated scf accuracy    <       0.07931323 Ry

     total magnetization       =    16.00 Bohr mag/cell
     absolute magnetization    =    16.08 Bohr mag/cell

     iteration # 17     ecut=   100.00 Ry     beta= 0.40
     Davidson diagonalization with overlap
     ethr =  3.67E-05,  avg # of iterations =  1.0

     negative rho (up, down):  0.000E+00 5.229E-04

     total cpu time spent up to now is    66532.4 secs

     total energy              =   -2382.21438436 Ry
     estimated scf accuracy    <       0.11209073 Ry

     total magnetization       =    16.00 Bohr mag/cell
     absolute magnetization    =    16.08 Bohr mag/cell

     iteration # 18     ecut=   100.00 Ry     beta= 0.40
     Davidson diagonalization with overlap
     ethr =  3.67E-05,  avg # of iterations =  1.0

     negative rho (up, down):  0.000E+00 5.165E-04

     total cpu time spent up to now is    70112.4 secs

     total energy              =   -2382.21813878 Ry
     estimated scf accuracy    <       0.03790917 Ry

     total magnetization       =    16.00 Bohr mag/cell
     absolute magnetization    =    16.08 Bohr mag/cell

     iteration # 19     ecut=   100.00 Ry     beta= 0.40
     Davidson diagonalization with overlap
     c_bands:  1 eigenvalues not converged
     ethr =  1.76E-05,  avg # of iterations =  4.3

     negative rho (up, down):  0.000E+00 5.307E-04

     total cpu time spent up to now is    74033.8 secs

     total energy              =   -2382.21789378 Ry
     estimated scf accuracy    <       0.01920829 Ry

     total magnetization       =    16.00 Bohr mag/cell
     absolute magnetization    =    16.08 Bohr mag/cell

     iteration # 20     ecut=   100.00 Ry     beta= 0.40
     Davidson diagonalization with overlap
     c_bands:  2 eigenvalues not converged
     c_bands:  1 eigenvalues not converged
     c_bands:  1 eigenvalues not converged
     c_bands:  1 eigenvalues not converged
     c_bands:  1 eigenvalues not converged
     c_bands:  1 eigenvalues not converged
     c_bands:  1 eigenvalues not converged
     ethr =  8.89E-06,  avg # of iterations =  4.8

     negative rho (up, down):  0.000E+00 5.285E-04

     total cpu time spent up to now is    78068.4 secs

     total energy              =   -2382.21829882 Ry
     estimated scf accuracy    <       0.00531625 Ry

     total magnetization       =    16.00 Bohr mag/cell
     absolute magnetization    =    16.07 Bohr mag/cell

     iteration # 21     ecut=   100.00 Ry     beta= 0.40
     Davidson diagonalization with overlap
     c_bands:  1 eigenvalues not converged
     c_bands:  1 eigenvalues not converged
     c_bands:  1 eigenvalues not converged
     c_bands:  1 eigenvalues not converged
     c_bands:  1 eigenvalues not converged
     c_bands:  1 eigenvalues not converged
     c_bands:  1 eigenvalues not converged
     ethr =  2.46E-06,  avg # of iterations =  8.7

     negative rho (up, down):  0.000E+00 5.328E-04

     total cpu time spent up to now is    82481.5 secs

     total energy              =   -2382.21865835 Ry
     estimated scf accuracy    <       0.00410924 Ry

     total magnetization       =    16.00 Bohr mag/cell
     absolute magnetization    =    16.07 Bohr mag/cell

     iteration # 22     ecut=   100.00 Ry     beta= 0.40
     Davidson diagonalization with overlap
     c_bands:  1 eigenvalues not converged
     ethr =  1.90E-06,  avg # of iterations =  1.3

     negative rho (up, down):  0.000E+00 5.354E-04

     total cpu time spent up to now is    86098.2 secs

     total energy              =   -2382.21882271 Ry
     estimated scf accuracy    <       0.00063190 Ry

     total magnetization       =    16.00 Bohr mag/cell
     absolute magnetization    =    16.07 Bohr mag/cell

     iteration # 23     ecut=   100.00 Ry     beta= 0.40
     Davidson diagonalization with overlap
     c_bands:  1 eigenvalues not converged
     ethr =  2.93E-07,  avg # of iterations =  1.4

     negative rho (up, down):  0.000E+00 5.375E-04

     total cpu time spent up to now is    89742.5 secs

     total energy              =   -2382.21884300 Ry
     estimated scf accuracy    <       0.00399044 Ry

     total magnetization       =    16.00 Bohr mag/cell
     absolute magnetization    =    16.08 Bohr mag/cell

     iteration # 24     ecut=   100.00 Ry     beta= 0.40
     Davidson diagonalization with overlap
     ethr =  2.93E-07,  avg # of iterations =  1.1

     negative rho (up, down):  0.000E+00 5.293E-04

     total cpu time spent up to now is    93345.3 secs

     total energy              =   -2382.21881350 Ry
     estimated scf accuracy    <       0.00394154 Ry

     total magnetization       =    16.00 Bohr mag/cell
     absolute magnetization    =    16.08 Bohr mag/cell

     iteration # 25     ecut=   100.00 Ry     beta= 0.40
     Davidson diagonalization with overlap
     ethr =  2.93E-07,  avg # of iterations =  2.0

     negative rho (up, down):  0.000E+00 5.209E-04

     total cpu time spent up to now is    97223.6 secs

     total energy              =   -2382.21895657 Ry
     estimated scf accuracy    <       0.00038584 Ry

     total magnetization       =    16.00 Bohr mag/cell
     absolute magnetization    =    16.08 Bohr mag/cell

     iteration # 26     ecut=   100.00 Ry     beta= 0.40
     Davidson diagonalization with overlap
     ethr =  1.79E-07,  avg # of iterations =  2.0

     negative rho (up, down):  0.000E+00 5.186E-04

     total cpu time spent up to now is   101119.2 secs

     total energy              =   -2382.21909878 Ry
     estimated scf accuracy    <       0.00024117 Ry

     total magnetization       =    16.00 Bohr mag/cell
     absolute magnetization    =    16.08 Bohr mag/cell

     iteration # 27     ecut=   100.00 Ry     beta= 0.40
     Davidson diagonalization with overlap
     ethr =  1.12E-07,  avg # of iterations =  2.1

     negative rho (up, down):  0.000E+00 5.183E-04

     total cpu time spent up to now is   104914.4 secs

     total energy              =   -2382.21910655 Ry
     estimated scf accuracy    <       0.00163350 Ry

     total magnetization       =    16.00 Bohr mag/cell
     absolute magnetization    =    16.08 Bohr mag/cell

     iteration # 28     ecut=   100.00 Ry     beta= 0.40
     Davidson diagonalization with overlap
     ethr =  1.12E-07,  avg # of iterations =  1.0

     negative rho (up, down):  0.000E+00 5.145E-04

     total cpu time spent up to now is   108517.2 secs

     total energy              =   -2382.21907684 Ry
     estimated scf accuracy    <       0.00008367 Ry

     total magnetization       =    16.00 Bohr mag/cell
     absolute magnetization    =    16.08 Bohr mag/cell

     iteration # 29     ecut=   100.00 Ry     beta= 0.40
     Davidson diagonalization with overlap
     ethr =  3.87E-08,  avg # of iterations =  2.1

     negative rho (up, down):  0.000E+00 5.101E-04

     total cpu time spent up to now is   112664.0 secs

     total energy              =   -2382.21895617 Ry
     estimated scf accuracy    <       0.00002721 Ry

     total magnetization       =    16.00 Bohr mag/cell
     absolute magnetization    =    16.08 Bohr mag/cell

     iteration # 30     ecut=   100.00 Ry     beta= 0.40
     Davidson diagonalization with overlap
     ethr =  1.26E-08,  avg # of iterations =  4.7

     negative rho (up, down):  0.000E+00 5.102E-04

     total cpu time spent up to now is   117731.3 secs

     total energy              =   -2382.21924132 Ry
     estimated scf accuracy    <       0.00002278 Ry

     total magnetization       =    16.00 Bohr mag/cell
     absolute magnetization    =    16.09 Bohr mag/cell

     iteration # 31     ecut=   100.00 Ry     beta= 0.40
     Davidson diagonalization with overlap
     ethr =  1.05E-08,  avg # of iterations =  1.1

     negative rho (up, down):  0.000E+00 5.073E-04

     total cpu time spent up to now is   121331.4 secs

     total energy              =   -2382.21917659 Ry
     estimated scf accuracy    <       0.00003404 Ry

     total magnetization       =    16.00 Bohr mag/cell
     absolute magnetization    =    16.09 Bohr mag/cell

     iteration # 32     ecut=   100.00 Ry     beta= 0.40
     Davidson diagonalization with overlap
     ethr =  1.05E-08,  avg # of iterations =  2.9

     negative rho (up, down):  0.000E+00 5.068E-04

     total cpu time spent up to now is   125896.7 secs

     total energy              =   -2382.21925685 Ry
     estimated scf accuracy    <       0.00000164 Ry

     total magnetization       =    16.00 Bohr mag/cell
     absolute magnetization    =    16.09 Bohr mag/cell

     iteration # 33     ecut=   100.00 Ry     beta= 0.40
     Davidson diagonalization with overlap
     ethr =  7.60E-10,  avg # of iterations =  4.2

     negative rho (up, down):  0.000E+00 5.057E-04

     total cpu time spent up to now is   130711.1 secs

     total energy              =   -2382.21926032 Ry
     estimated scf accuracy    <       0.00000325 Ry

     total magnetization       =    16.00 Bohr mag/cell
     absolute magnetization    =    16.09 Bohr mag/cell

     iteration # 34     ecut=   100.00 Ry     beta= 0.40
     Davidson diagonalization with overlap
     ethr =  7.60E-10,  avg # of iterations =  2.8

     negative rho (up, down):  0.000E+00 5.050E-04

     total cpu time spent up to now is   135149.7 secs

     total energy              =   -2382.21926612 Ry
     estimated scf accuracy    <       0.00000035 Ry

     total magnetization       =    16.00 Bohr mag/cell
     absolute magnetization    =    16.09 Bohr mag/cell

     iteration # 35     ecut=   100.00 Ry     beta= 0.40
     Davidson diagonalization with overlap
     ethr =  1.63E-10,  avg # of iterations =  4.0

     negative rho (up, down):  0.000E+00 5.052E-04

     total cpu time spent up to now is   139835.5 secs

     total energy              =   -2382.21926804 Ry
     estimated scf accuracy    <       0.00000025 Ry

     total magnetization       =    16.00 Bohr mag/cell
     absolute magnetization    =    16.09 Bohr mag/cell

     iteration # 36     ecut=   100.00 Ry     beta= 0.40
     Davidson diagonalization with overlap
     ethr =  1.16E-10,  avg # of iterations =  2.0

     negative rho (up, down):  0.000E+00 5.056E-04

     total cpu time spent up to now is   143829.7 secs

     total energy              =   -2382.21926846 Ry
     estimated scf accuracy    <       0.00000062 Ry

     total magnetization       =    16.00 Bohr mag/cell
     absolute magnetization    =    16.09 Bohr mag/cell

     iteration # 37     ecut=   100.00 Ry     beta= 0.40
     Davidson diagonalization with overlap
     ethr =  1.16E-10,  avg # of iterations =  2.8

     negative rho (up, down):  0.000E+00 5.054E-04

     total cpu time spent up to now is   148267.9 secs

     total energy              =   -2382.21926897 Ry
     estimated scf accuracy    <       0.00000012 Ry

     total magnetization       =    16.00 Bohr mag/cell
     absolute magnetization    =    16.09 Bohr mag/cell

     iteration # 38     ecut=   100.00 Ry     beta= 0.40
     Davidson diagonalization with overlap
     ethr =  5.41E-11,  avg # of iterations =  2.6

     negative rho (up, down):  0.000E+00 5.051E-04

     total cpu time spent up to now is   152613.5 secs

     total energy              =   -2382.21926900 Ry
     estimated scf accuracy    <       0.00000007 Ry

     total magnetization       =    16.00 Bohr mag/cell
     absolute magnetization    =    16.09 Bohr mag/cell

     iteration # 39     ecut=   100.00 Ry     beta= 0.40
     Davidson diagonalization with overlap
     ethr =  3.08E-11,  avg # of iterations =  4.0

     negative rho (up, down):  0.000E+00 5.051E-04

     total cpu time spent up to now is   157422.4 secs

     total energy              =   -2382.21926924 Ry
     estimated scf accuracy    <       0.00000010 Ry

     total magnetization       =    16.00 Bohr mag/cell
     absolute magnetization    =    16.09 Bohr mag/cell

     iteration # 40     ecut=   100.00 Ry     beta= 0.40
     Davidson diagonalization with overlap
     ethr =  3.08E-11,  avg # of iterations =  2.6

     negative rho (up, down):  0.000E+00 5.051E-04

     total cpu time spent up to now is   161855.6 secs

     total energy              =   -2382.21926932 Ry
     estimated scf accuracy    <       0.00000007 Ry

     total magnetization       =    16.00 Bohr mag/cell
     absolute magnetization    =    16.09 Bohr mag/cell

     iteration # 41     ecut=   100.00 Ry     beta= 0.40
     Davidson diagonalization with overlap
     ethr =  3.08E-11,  avg # of iterations =  2.6

     negative rho (up, down):  0.000E+00 5.050E-04

     total cpu time spent up to now is   166214.9 secs

     total energy              =   -2382.21926945 Ry
     estimated scf accuracy    <          9.8E-09 Ry

     total magnetization       =    16.00 Bohr mag/cell
     absolute magnetization    =    16.09 Bohr mag/cell

     iteration # 42     ecut=   100.00 Ry     beta= 0.40
     Davidson diagonalization with overlap
     ethr =  4.52E-12,  avg # of iterations =  4.1

     negative rho (up, down):  0.000E+00 5.049E-04

     total cpu time spent up to now is   171210.0 secs

     total energy              =   -2382.21926947 Ry
     estimated scf accuracy    <          1.7E-09 Ry

     total magnetization       =    16.00 Bohr mag/cell
     absolute magnetization    =    16.09 Bohr mag/cell

     iteration # 43     ecut=   100.00 Ry     beta= 0.40
     Davidson diagonalization with overlap
     ethr =  7.65E-13,  avg # of iterations =  4.1

     negative rho (up, down):  0.000E+00 5.049E-04

     total cpu time spent up to now is   176397.9 secs

     total energy              =   -2382.21926951 Ry
     estimated scf accuracy    <          3.1E-10 Ry

     total magnetization       =    16.00 Bohr mag/cell
     absolute magnetization    =    16.09 Bohr mag/cell

     iteration # 44     ecut=   100.00 Ry     beta= 0.40
     Davidson diagonalization with overlap
     ethr =  1.43E-13,  avg # of iterations =  4.0

     negative rho (up, down):  0.000E+00 5.049E-04

     Magnetic moment per site:
     atom:    1    charge:    7.9720    magn:    0.0001    constr:    0.0000
     atom:    2    charge:    7.9720    magn:    0.0001    constr:    0.0000
     atom:    3    charge:    7.9720    magn:    0.0001    constr:    0.0000
     atom:    4    charge:    7.9720    magn:    0.0001    constr:    0.0000
     atom:    5    charge:   13.4531    magn:    3.4048    constr:    0.0000
     atom:    6    charge:   13.4531    magn:    3.4047    constr:    0.0000
     atom:    7    charge:   13.4531    magn:    3.4048    constr:    0.0000
     atom:    8    charge:   13.4531    magn:    3.4047    constr:    0.0000
     atom:    9    charge:    0.8367    magn:    0.0056    constr:    0.0000
     atom:   10    charge:    0.8367    magn:    0.0056    constr:    0.0000
     atom:   11    charge:    0.8367    magn:    0.0056    constr:    0.0000
     atom:   12    charge:    0.8367    magn:    0.0056    constr:    0.0000
     atom:   13    charge:    4.2552    magn:    0.0284    constr:    0.0000
     atom:   14    charge:    4.2552    magn:    0.0284    constr:    0.0000
     atom:   15    charge:    4.2552    magn:    0.0284    constr:    0.0000
     atom:   16    charge:    4.2552    magn:    0.0284    constr:    0.0000
     atom:   17    charge:    4.2292    magn:    0.0403    constr:    0.0000
     atom:   18    charge:    4.2292    magn:    0.0403    constr:    0.0000
     atom:   19    charge:    4.2292    magn:    0.0403    constr:    0.0000
     atom:   20    charge:    4.2292    magn:    0.0403    constr:    0.0000
     atom:   21    charge:    4.2222    magn:    0.0689    constr:    0.0000
     atom:   22    charge:    4.2222    magn:    0.0689    constr:    0.0000
     atom:   23    charge:    4.2222    magn:    0.0689    constr:    0.0000
     atom:   24    charge:    4.2222    magn:    0.0689    constr:    0.0000
     atom:   25    charge:    4.2222    magn:    0.0689    constr:    0.0000
     atom:   26    charge:    4.2222    magn:    0.0689    constr:    0.0000
     atom:   27    charge:    4.2222    magn:    0.0689    constr:    0.0000
     atom:   28    charge:    4.2222    magn:    0.0689    constr:    0.0000

     total cpu time spent up to now is   181601.6 secs

     End of self-consistent calculation

 ------ SPIN UP ------------


          k = 0.0000 0.0000 0.0000 ( 38991 PWs)   bands (ev):

   -82.0521 -82.0517 -82.0505 -82.0500 -48.9262 -48.9255 -48.9246 -48.9239
   -48.0639 -48.0635 -48.0624 -48.0617 -47.3063 -47.3056 -47.3046 -47.3039
   -43.7317 -43.7317 -43.7262 -43.7261 -15.8820 -15.8760 -15.7653 -15.7616
   -15.7311 -15.7297 -15.7131 -15.7113 -15.6727 -15.6727 -15.6563 -15.6562
   -15.0000 -14.8499 -14.7007 -14.5972 -12.5707 -12.5470 -12.5190 -12.5034
   -12.4264 -12.3802 -12.2646 -12.2616 -12.2218 -12.1989 -12.1753 -12.1589
    -2.6711  -2.3150  -2.1275  -2.1252  -0.8581  -0.5267  -0.4459  -0.3534
    -0.1035  -0.0592   0.1955   0.2340   0.2479   0.2690   0.3396   0.5983
     1.5069   1.6530   1.8939   1.9324   2.1651   2.2606   2.2772   2.2954
     2.3812   2.4608   2.5539   2.7009   2.8166   2.8222   2.9082   3.0431
     3.0991   3.1051   3.1100   3.1880   3.2161   3.3063   3.5180   3.5413
     3.5694   3.5998   3.7125   3.9526   4.0030   4.1344   4.3411   4.4518
     4.4610   4.5909   4.7287   4.7998   4.8490   4.8904   4.9547   5.0274
     5.0610   5.2460   5.3673   5.5312   5.6745   5.7149   5.7193   5.9426
     6.0024   6.0456   6.0508   6.1217   9.1862  11.1029  11.4853  11.8699
    12.2852  13.0869  13.2644  13.6896  14.0375  14.1878  14.1998  14.2349
    14.3333  14.3639

     occupation numbers 
     1.0000   1.0000   1.0000   1.0000   1.0000   1.0000   1.0000   1.0000
     1.0000   1.0000   1.0000   1.0000   1.0000   1.0000   1.0000   1.0000
     1.0000   1.0000   1.0000   1.0000   1.0000   1.0000   1.0000   1.0000
     1.0000   1.0000   1.0000   1.0000   1.0000   1.0000   1.0000   1.0000
     1.0000   1.0000   1.0000   1.0000   1.0000   1.0000   1.0000   1.0000
     1.0000   1.0000   1.0000   1.0000   1.0000   1.0000   1.0000   1.0000
     1.0000   1.0000   1.0000   1.0000   1.0000   1.0000   1.0000   1.0000
     1.0000   1.0000   1.0000   1.0000   1.0000   1.0000   1.0000   1.0000
     1.0000   1.0000   1.0000   1.0000   1.0000   1.0000   1.0000   1.0000
     1.0000   1.0000   1.0000   1.0000   1.0000   1.0000   1.0000   1.0000
     1.0000   1.0000   1.0000   1.0000   1.0000   1.0000   1.0000   1.0000
     1.0000   1.0000   1.0000   1.0000   1.0000   1.0000   1.0000   1.0000
     1.0000   1.0000   1.0000   1.0000   1.0000   1.0000   1.0000   1.0000
     1.0000   1.0000   1.0000   1.0000   1.0000   1.0000   1.0000   1.0000
     1.0000   1.0000   1.0000   1.0000   0.0000   0.0000   0.0000   0.0000
     0.0000   0.0000   0.0000   0.0000   0.0000   0.0000   0.0000   0.0000
     0.0000   0.0000

          k = 0.0000 0.0000 0.2415 ( 38977 PWs)   bands (ev):

   -82.0521 -82.0517 -82.0505 -82.0500 -48.9262 -48.9255 -48.9246 -48.9239
   -48.0639 -48.0635 -48.0624 -48.0617 -47.3063 -47.3056 -47.3046 -47.3040
   -43.7317 -43.7317 -43.7262 -43.7261 -15.8762 -15.8707 -15.7689 -15.7657
   -15.7312 -15.7298 -15.7193 -15.7159 -15.6728 -15.6727 -15.6564 -15.6563
   -14.9718 -14.8304 -14.7037 -14.6063 -12.5822 -12.5602 -12.5383 -12.5126
   -12.4200 -12.3763 -12.2677 -12.2674 -12.2276 -12.1890 -12.1884 -12.1495
    -2.6548  -2.3166  -2.1518  -2.1054  -0.7944  -0.4999  -0.3823  -0.2935
    -0.1054  -0.0404   0.2109   0.2312   0.2431   0.2661   0.3132   0.5789
     1.5018   1.6410   1.8911   1.8992   2.1678   2.1862   2.2242   2.2983
     2.3279   2.5014   2.5070   2.6574   2.7891   2.8421   2.8530   2.9945
     3.0186   3.1183   3.2409   3.2498   3.2804   3.3001   3.4799   3.5087
     3.5269   3.6410   3.7809   3.9637   4.0294   4.1376   4.3275   4.4403
     4.4543   4.5906   4.6923   4.8244   4.8501   4.8530   4.9027   5.0197
     5.0966   5.2633   5.4006   5.5718   5.6766   5.7329   5.7405   5.9051
     5.9797   6.0263   6.0631   6.1131   9.3376  11.1532  11.5415  11.8850
    12.3451  12.9175  13.4541  13.4810  13.8051  14.0737  14.1020  14.1808
    14.3468  14.4219

     occupation numbers 
     1.0000   1.0000   1.0000   1.0000   1.0000   1.0000   1.0000   1.0000
     1.0000   1.0000   1.0000   1.0000   1.0000   1.0000   1.0000   1.0000
     1.0000   1.0000   1.0000   1.0000   1.0000   1.0000   1.0000   1.0000
     1.0000   1.0000   1.0000   1.0000   1.0000   1.0000   1.0000   1.0000
     1.0000   1.0000   1.0000   1.0000   1.0000   1.0000   1.0000   1.0000
     1.0000   1.0000   1.0000   1.0000   1.0000   1.0000   1.0000   1.0000
     1.0000   1.0000   1.0000   1.0000   1.0000   1.0000   1.0000   1.0000
     1.0000   1.0000   1.0000   1.0000   1.0000   1.0000   1.0000   1.0000
     1.0000   1.0000   1.0000   1.0000   1.0000   1.0000   1.0000   1.0000
     1.0000   1.0000   1.0000   1.0000   1.0000   1.0000   1.0000   1.0000
     1.0000   1.0000   1.0000   1.0000   1.0000   1.0000   1.0000   1.0000
     1.0000   1.0000   1.0000   1.0000   1.0000   1.0000   1.0000   1.0000
     1.0000   1.0000   1.0000   1.0000   1.0000   1.0000   1.0000   1.0000
     1.0000   1.0000   1.0000   1.0000   1.0000   1.0000   1.0000   1.0000
     1.0000   1.0000   1.0000   1.0000   0.0000   0.0000   0.0000   0.0000
     0.0000   0.0000   0.0000   0.0000   0.0000   0.0000   0.0000   0.0000
     0.0000   0.0000

          k = 0.0000 0.0000 0.4830 ( 38986 PWs)   bands (ev):

   -82.0521 -82.0517 -82.0505 -82.0500 -48.9262 -48.9255 -48.9245 -48.9239
   -48.0639 -48.0635 -48.0624 -48.0617 -47.3063 -47.3056 -47.3046 -47.3040
   -43.7317 -43.7317 -43.7262 -43.7261 -15.8627 -15.8585 -15.7815 -15.7789
   -15.7313 -15.7302 -15.7266 -15.7218 -15.6729 -15.6729 -15.6566 -15.6565
   -14.9002 -14.7835 -14.7108 -14.6308 -12.6217 -12.5832 -12.5820 -12.5447
   -12.4017 -12.3651 -12.2770 -12.2753 -12.2443 -12.2107 -12.1677 -12.1374
    -2.6058  -2.3145  -2.1852  -2.1057  -0.6078  -0.4194  -0.2330  -0.1406
    -0.1045   0.0037   0.2164   0.2363   0.2407   0.2757   0.2884   0.5223
     1.4833   1.6132   1.7887   1.9153   2.0613   2.1314   2.1654   2.1970
     2.2538   2.3761   2.5710   2.6346   2.6859   2.7383   2.7939   2.8822
     2.9610   3.0868   3.2523   3.3324   3.3844   3.4205   3.4700   3.4773
     3.5895   3.7120   3.7922   4.0427   4.1009   4.1399   4.3099   4.4188
     4.4293   4.5912   4.6463   4.7014   4.7910   4.8646   4.9325   4.9967
     5.1817   5.3272   5.4625   5.6517   5.6843   5.7815   5.7900   5.8355
     5.9116   5.9680   6.0719   6.0903   9.7353  11.2962  11.6122  11.9968
    12.5216  12.7589  12.9983  13.4926  13.6865  13.7424  13.8799  14.1220
    14.2505  14.4216

     occupation numbers 
     1.0000   1.0000   1.0000   1.0000   1.0000   1.0000   1.0000   1.0000
     1.0000   1.0000   1.0000   1.0000   1.0000   1.0000   1.0000   1.0000
     1.0000   1.0000   1.0000   1.0000   1.0000   1.0000   1.0000   1.0000
     1.0000   1.0000   1.0000   1.0000   1.0000   1.0000   1.0000   1.0000
     1.0000   1.0000   1.0000   1.0000   1.0000   1.0000   1.0000   1.0000
     1.0000   1.0000   1.0000   1.0000   1.0000   1.0000   1.0000   1.0000
     1.0000   1.0000   1.0000   1.0000   1.0000   1.0000   1.0000   1.0000
     1.0000   1.0000   1.0000   1.0000   1.0000   1.0000   1.0000   1.0000
     1.0000   1.0000   1.0000   1.0000   1.0000   1.0000   1.0000   1.0000
     1.0000   1.0000   1.0000   1.0000   1.0000   1.0000   1.0000   1.0000
     1.0000   1.0000   1.0000   1.0000   1.0000   1.0000   1.0000   1.0000
     1.0000   1.0000   1.0000   1.0000   1.0000   1.0000   1.0000   1.0000
     1.0000   1.0000   1.0000   1.0000   1.0000   1.0000   1.0000   1.0000
     1.0000   1.0000   1.0000   1.0000   1.0000   1.0000   1.0000   1.0000
     1.0000   1.0000   1.0000   1.0000   0.0000   0.0000   0.0000   0.0000
     0.0000   0.0000   0.0000   0.0000   0.0000   0.0000   0.0000   0.0000
     0.0000   0.0000

          k = 0.0000 0.0000 0.7246 ( 39012 PWs)   bands (ev):

   -82.0521 -82.0517 -82.0505 -82.0500 -48.9261 -48.9255 -48.9245 -48.9239
   -48.0639 -48.0635 -48.0624 -48.0617 -47.3063 -47.3057 -47.3046 -47.3040
   -43.7317 -43.7317 -43.7262 -43.7261 -15.8522 -15.8490 -15.7950 -15.7936
   -15.7314 -15.7307 -15.7257 -15.7219 -15.6731 -15.6730 -15.6568 -15.6567
   -14.8144 -14.7367 -14.7159 -14.6630 -12.6712 -12.6379 -12.6026 -12.5825
   -12.3742 -12.3481 -12.2920 -12.2760 -12.2699 -12.2336 -12.1470 -12.1289
    -2.5261  -2.2969  -2.2387  -2.1437  -0.3422  -0.2918  -0.1268  -0.0862
     0.0325   0.0544   0.1415   0.1803   0.2442   0.4158   0.4174   0.4387
     1.4429   1.5946   1.6529   1.8944   1.9446   2.0428   2.0834   2.1387
     2.1921   2.2421   2.3152   2.5289   2.6615   2.7432   2.7741   2.8944
     2.9179   2.9934   3.1549   3.2101   3.4670   3.5186   3.5671   3.6111
     3.6495   3.8065   3.8690   4.0383   4.1197   4.1831   4.3580   4.3817
     4.4150   4.5887   4.5947   4.6379   4.6914   4.8671   4.9687   4.9829
     5.3102   5.4440   5.5206   5.6891   5.7187   5.7516   5.7993   5.8453
     5.8683   5.8711   6.0625   6.0633  10.2654  11.5195  11.5576  12.1780
    12.5974  12.6638  12.8390  13.1903  13.2041  13.7825  13.8302  14.0183
    14.0235  14.3563

     occupation numbers 
     1.0000   1.0000   1.0000   1.0000   1.0000   1.0000   1.0000   1.0000
     1.0000   1.0000   1.0000   1.0000   1.0000   1.0000   1.0000   1.0000
     1.0000   1.0000   1.0000   1.0000   1.0000   1.0000   1.0000   1.0000
     1.0000   1.0000   1.0000   1.0000   1.0000   1.0000   1.0000   1.0000
     1.0000   1.0000   1.0000   1.0000   1.0000   1.0000   1.0000   1.0000
     1.0000   1.0000   1.0000   1.0000   1.0000   1.0000   1.0000   1.0000
     1.0000   1.0000   1.0000   1.0000   1.0000   1.0000   1.0000   1.0000
     1.0000   1.0000   1.0000   1.0000   1.0000   1.0000   1.0000   1.0000
     1.0000   1.0000   1.0000   1.0000   1.0000   1.0000   1.0000   1.0000
     1.0000   1.0000   1.0000   1.0000   1.0000   1.0000   1.0000   1.0000
     1.0000   1.0000   1.0000   1.0000   1.0000   1.0000   1.0000   1.0000
     1.0000   1.0000   1.0000   1.0000   1.0000   1.0000   1.0000   1.0000
     1.0000   1.0000   1.0000   1.0000   1.0000   1.0000   1.0000   1.0000
     1.0000   1.0000   1.0000   1.0000   1.0000   1.0000   1.0000   1.0000
     1.0000   1.0000   1.0000   1.0000   0.0000   0.0000   0.0000   0.0000
     0.0000   0.0000   0.0000   0.0000   0.0000   0.0000   0.0000   0.0000
     0.0000   0.0000

          k = 0.0000 0.0000 0.9661 ( 38942 PWs)   bands (ev):

   -82.0521 -82.0517 -82.0505 -82.0500 -48.9261 -48.9256 -48.9244 -48.9240
   -48.0639 -48.0635 -48.0624 -48.0617 -47.3063 -47.3057 -47.3046 -47.3040
   -43.7317 -43.7317 -43.7262 -43.7261 -15.8505 -15.8491 -15.7988 -15.7985
   -15.7313 -15.7311 -15.7214 -15.7201 -15.6732 -15.6731 -15.6570 -15.6569
   -14.7462 -14.7193 -14.7114 -14.6922 -12.6985 -12.6852 -12.6127 -12.6069
   -12.3418 -12.3269 -12.3126 -12.3003 -12.2683 -12.2536 -12.1325 -12.1266
    -2.4247  -2.3210  -2.2590  -2.2039  -0.1973  -0.1271  -0.0715  -0.0383
     0.0412   0.0497   0.1337   0.1957   0.2813   0.3503   0.5772   0.5797
     1.4131   1.4949   1.6117   1.7148   1.9380   1.9911   1.9967   2.0739
     2.0950   2.1460   2.2616   2.3672   2.7132   2.7536   2.8218   2.8478
     2.9524   2.9811   3.0370   3.0834   3.5198   3.5542   3.5863   3.6393
     3.7836   3.9289   3.9380   4.0463   4.0531   4.1807   4.3606   4.3855
     4.4433   4.5020   4.6045   4.6311   4.7089   4.8103   4.9718   4.9881
     5.4766   5.5786   5.5908   5.6426   5.6489   5.7406   5.7409   5.7455
     5.9015   5.9121   6.0423   6.0449  10.8209  11.2943  11.8030  12.0781
    12.6111  12.6339  12.8152  12.9069  13.2738  13.6393  13.8020  13.9021
    13.9679  14.1464

     occupation numbers 
     1.0000   1.0000   1.0000   1.0000   1.0000   1.0000   1.0000   1.0000
     1.0000   1.0000   1.0000   1.0000   1.0000   1.0000   1.0000   1.0000
     1.0000   1.0000   1.0000   1.0000   1.0000   1.0000   1.0000   1.0000
     1.0000   1.0000   1.0000   1.0000   1.0000   1.0000   1.0000   1.0000
     1.0000   1.0000   1.0000   1.0000   1.0000   1.0000   1.0000   1.0000
     1.0000   1.0000   1.0000   1.0000   1.0000   1.0000   1.0000   1.0000
     1.0000   1.0000   1.0000   1.0000   1.0000   1.0000   1.0000   1.0000
     1.0000   1.0000   1.0000   1.0000   1.0000   1.0000   1.0000   1.0000
     1.0000   1.0000   1.0000   1.0000   1.0000   1.0000   1.0000   1.0000
     1.0000   1.0000   1.0000   1.0000   1.0000   1.0000   1.0000   1.0000
     1.0000   1.0000   1.0000   1.0000   1.0000   1.0000   1.0000   1.0000
     1.0000   1.0000   1.0000   1.0000   1.0000   1.0000   1.0000   1.0000
     1.0000   1.0000   1.0000   1.0000   1.0000   1.0000   1.0000   1.0000
     1.0000   1.0000   1.0000   1.0000   1.0000   1.0000   1.0000   1.0000
     1.0000   1.0000   1.0000   1.0000   0.0000   0.0000   0.0000   0.0000
     0.0000   0.0000   0.0000   0.0000   0.0000   0.0000   0.0000   0.0000
     0.0000   0.0000

          k = 0.0000 0.2391 0.0000 ( 38987 PWs)   bands (ev):

   -82.0521 -82.0517 -82.0505 -82.0500 -48.9262 -48.9255 -48.9245 -48.9239
   -48.0639 -48.0635 -48.0624 -48.0617 -47.3063 -47.3056 -47.3046 -47.3040
   -43.7315 -43.7314 -43.7264 -43.7264 -15.8731 -15.8678 -15.7635 -15.7600
   -15.7330 -15.7315 -15.7104 -15.7087 -15.6854 -15.6846 -15.6595 -15.6594
   -14.9773 -14.8385 -14.7047 -14.6157 -12.5660 -12.5448 -12.5194 -12.5058
   -12.4195 -12.3940 -12.3284 -12.2353 -12.2036 -12.1954 -12.1648 -12.1595
    -2.6398  -2.2943  -2.1491  -2.1205  -0.8210  -0.5082  -0.4311  -0.3637
    -0.0688  -0.0577   0.1555   0.1872   0.2724   0.3164   0.3617   0.5734
     1.5180   1.6595   1.8579   1.9332   2.0600   2.1925   2.2239   2.3437
     2.3466   2.4786   2.6503   2.7349   2.7383   2.7999   2.8657   3.0860
     3.0877   3.1111   3.1626   3.1640   3.2705   3.3262   3.4298   3.5520
     3.6042   3.6167   3.6906   3.9302   3.9816   4.1388   4.3767   4.3982
     4.4364   4.5795   4.6207   4.6718   4.8609   4.9607   5.0441   5.0488
     5.0605   5.2223   5.4729   5.5653   5.6715   5.6793   5.7176   5.8245
     5.8647   6.1110   6.1518   6.1564   9.3498  11.1932  11.5943  11.8380
    12.3395  13.1589  13.1998  13.5899  14.0740  14.1306  14.1961  14.2257
    14.3915  14.4558

     occupation numbers 
     1.0000   1.0000   1.0000   1.0000   1.0000   1.0000   1.0000   1.0000
     1.0000   1.0000   1.0000   1.0000   1.0000   1.0000   1.0000   1.0000
     1.0000   1.0000   1.0000   1.0000   1.0000   1.0000   1.0000   1.0000
     1.0000   1.0000   1.0000   1.0000   1.0000   1.0000   1.0000   1.0000
     1.0000   1.0000   1.0000   1.0000   1.0000   1.0000   1.0000   1.0000
     1.0000   1.0000   1.0000   1.0000   1.0000   1.0000   1.0000   1.0000
     1.0000   1.0000   1.0000   1.0000   1.0000   1.0000   1.0000   1.0000
     1.0000   1.0000   1.0000   1.0000   1.0000   1.0000   1.0000   1.0000
     1.0000   1.0000   1.0000   1.0000   1.0000   1.0000   1.0000   1.0000
     1.0000   1.0000   1.0000   1.0000   1.0000   1.0000   1.0000   1.0000
     1.0000   1.0000   1.0000   1.0000   1.0000   1.0000   1.0000   1.0000
     1.0000   1.0000   1.0000   1.0000   1.0000   1.0000   1.0000   1.0000
     1.0000   1.0000   1.0000   1.0000   1.0000   1.0000   1.0000   1.0000
     1.0000   1.0000   1.0000   1.0000   1.0000   1.0000   1.0000   1.0000
     1.0000   1.0000   1.0000   1.0000   0.0000   0.0000   0.0000   0.0000
     0.0000   0.0000   0.0000   0.0000   0.0000   0.0000   0.0000   0.0000
     0.0000   0.0000

          k = 0.0000 0.2391 0.2415 ( 38961 PWs)   bands (ev):

   -82.0521 -82.0517 -82.0505 -82.0500 -48.9262 -48.9255 -48.9245 -48.9239
   -48.0639 -48.0635 -48.0624 -48.0617 -47.3063 -47.3056 -47.3046 -47.3040
   -43.7315 -43.7314 -43.7264 -43.7264 -15.8675 -15.8627 -15.7670 -15.7639
   -15.7333 -15.7319 -15.7169 -15.7137 -15.6837 -15.6833 -15.6597 -15.6596
   -14.9514 -14.8207 -14.7070 -14.6230 -12.5785 -12.5587 -12.5390 -12.5153
   -12.4133 -12.3885 -12.3288 -12.2407 -12.2120 -12.1847 -12.1821 -12.1465
    -2.6238  -2.2958  -2.1600  -2.1118  -0.7587  -0.4818  -0.3693  -0.3039
    -0.0724  -0.0389   0.1637   0.2014   0.2637   0.3079   0.3377   0.5556
     1.5107   1.6399   1.8347   1.9416   2.0123   2.1542   2.1989   2.2905
     2.3091   2.5264   2.6179   2.6641   2.7590   2.7650   2.8950   3.0102
     3.0623   3.1024   3.2062   3.2580   3.3075   3.3326   3.3828   3.5567
     3.5618   3.6548   3.7393   3.9320   4.0048   4.1454   4.3659   4.3898
     4.4255   4.5487   4.6208   4.7077   4.8685   4.9219   4.9844   5.0422
     5.0942   5.2347   5.5064   5.6029   5.6736   5.6945   5.7358   5.8003
     5.8507   6.0874   6.1443   6.1615   9.4950  11.2441  11.6549  11.8719
    12.3878  12.9604  13.3697  13.4465  13.8928  13.9819  14.1774  14.2138
    14.3677  14.4505

     occupation numbers 
     1.0000   1.0000   1.0000   1.0000   1.0000   1.0000   1.0000   1.0000
     1.0000   1.0000   1.0000   1.0000   1.0000   1.0000   1.0000   1.0000
     1.0000   1.0000   1.0000   1.0000   1.0000   1.0000   1.0000   1.0000
     1.0000   1.0000   1.0000   1.0000   1.0000   1.0000   1.0000   1.0000
     1.0000   1.0000   1.0000   1.0000   1.0000   1.0000   1.0000   1.0000
     1.0000   1.0000   1.0000   1.0000   1.0000   1.0000   1.0000   1.0000
     1.0000   1.0000   1.0000   1.0000   1.0000   1.0000   1.0000   1.0000
     1.0000   1.0000   1.0000   1.0000   1.0000   1.0000   1.0000   1.0000
     1.0000   1.0000   1.0000   1.0000   1.0000   1.0000   1.0000   1.0000
     1.0000   1.0000   1.0000   1.0000   1.0000   1.0000   1.0000   1.0000
     1.0000   1.0000   1.0000   1.0000   1.0000   1.0000   1.0000   1.0000
     1.0000   1.0000   1.0000   1.0000   1.0000   1.0000   1.0000   1.0000
     1.0000   1.0000   1.0000   1.0000   1.0000   1.0000   1.0000   1.0000
     1.0000   1.0000   1.0000   1.0000   1.0000   1.0000   1.0000   1.0000
     1.0000   1.0000   1.0000   1.0000   0.0000   0.0000   0.0000   0.0000
     0.0000   0.0000   0.0000   0.0000   0.0000   0.0000   0.0000   0.0000
     0.0000   0.0000

          k = 0.0000 0.2391 0.4830 ( 38996 PWs)   bands (ev):

   -82.0521 -82.0517 -82.0505 -82.0500 -48.9261 -48.9255 -48.9245 -48.9239
   -48.0639 -48.0635 -48.0624 -48.0617 -47.3063 -47.3056 -47.3046 -47.3040
   -43.7315 -43.7314 -43.7264 -43.7264 -15.8545 -15.8508 -15.7787 -15.7763
   -15.7339 -15.7331 -15.7236 -15.7195 -15.6819 -15.6818 -15.6603 -15.6601
   -14.8852 -14.7774 -14.7120 -14.6427 -12.6176 -12.5853 -12.5827 -12.5487
   -12.3963 -12.3736 -12.3278 -12.2569 -12.2238 -12.2051 -12.1673 -12.1353
    -2.5761  -2.2941  -2.1840  -2.1142  -0.5763  -0.4040  -0.2230  -0.1570
    -0.0695   0.0027   0.1838   0.2488   0.2489   0.2881   0.3055   0.5043
     1.4817   1.6014   1.7576   1.9170   1.9543   2.0748   2.1052   2.1916
     2.2846   2.4949   2.5776   2.5833   2.7247   2.7310   2.8041   2.8928
     3.0172   3.0647   3.2264   3.2966   3.3750   3.4358   3.4603   3.5060
     3.6210   3.7201   3.7450   3.9742   4.0670   4.1644   4.3456   4.3653
     4.4033   4.4981   4.6220   4.7261   4.8659   4.8891   4.9267   5.0212
     5.1550   5.2726   5.5669   5.6778   5.6787   5.7140   5.7437   5.7893
     5.8185   6.0362   6.1257   6.1606   9.8799  11.3884  11.7339  12.0238
    12.5517  12.8137  12.9507  13.5702  13.6987  13.7175  13.9073  14.1200
    14.2016  14.3930

     occupation numbers 
     1.0000   1.0000   1.0000   1.0000   1.0000   1.0000   1.0000   1.0000
     1.0000   1.0000   1.0000   1.0000   1.0000   1.0000   1.0000   1.0000
     1.0000   1.0000   1.0000   1.0000   1.0000   1.0000   1.0000   1.0000
     1.0000   1.0000   1.0000   1.0000   1.0000   1.0000   1.0000   1.0000
     1.0000   1.0000   1.0000   1.0000   1.0000   1.0000   1.0000   1.0000
     1.0000   1.0000   1.0000   1.0000   1.0000   1.0000   1.0000   1.0000
     1.0000   1.0000   1.0000   1.0000   1.0000   1.0000   1.0000   1.0000
     1.0000   1.0000   1.0000   1.0000   1.0000   1.0000   1.0000   1.0000
     1.0000   1.0000   1.0000   1.0000   1.0000   1.0000   1.0000   1.0000
     1.0000   1.0000   1.0000   1.0000   1.0000   1.0000   1.0000   1.0000
     1.0000   1.0000   1.0000   1.0000   1.0000   1.0000   1.0000   1.0000
     1.0000   1.0000   1.0000   1.0000   1.0000   1.0000   1.0000   1.0000
     1.0000   1.0000   1.0000   1.0000   1.0000   1.0000   1.0000   1.0000
     1.0000   1.0000   1.0000   1.0000   1.0000   1.0000   1.0000   1.0000
     1.0000   1.0000   1.0000   1.0000   0.0000   0.0000   0.0000   0.0000
     0.0000   0.0000   0.0000   0.0000   0.0000   0.0000   0.0000   0.0000
     0.0000   0.0000

          k = 0.0000 0.2391 0.7246 ( 38953 PWs)   bands (ev):

   -82.0521 -82.0517 -82.0505 -82.0500 -48.9261 -48.9256 -48.9245 -48.9239
   -48.0639 -48.0635 -48.0624 -48.0617 -47.3063 -47.3057 -47.3046 -47.3040
   -43.7315 -43.7314 -43.7264 -43.7263 -15.8443 -15.8414 -15.7909 -15.7896
   -15.7341 -15.7335 -15.7231 -15.7197 -15.6815 -15.6815 -15.6610 -15.6609
   -14.8055 -14.7339 -14.7152 -14.6690 -12.6666 -12.6378 -12.6080 -12.5875
   -12.3718 -12.3533 -12.3248 -12.2814 -12.2366 -12.2273 -12.1496 -12.1289
    -2.4989  -2.2792  -2.2278  -2.1490  -0.3178  -0.2836  -0.1296  -0.0598
     0.0389   0.0440   0.1611   0.1770   0.2585   0.3953   0.4130   0.4483
     1.4239   1.5770   1.6255   1.7938   1.9420   2.0186   2.0280   2.1310
     2.2436   2.3009   2.3653   2.4686   2.6856   2.7564   2.7832   2.8954
     2.9645   2.9860   3.1374   3.2055   3.4537   3.5306   3.5728   3.6026
     3.6628   3.8003   3.8265   3.9708   4.1345   4.1663   4.3248   4.3554
     4.3949   4.4468   4.6270   4.6937   4.8138   4.9124   4.9586   4.9861
     5.2504   5.3450   5.6227   5.6338   5.6615   5.7105   5.7443   5.8204
     5.8611   5.9793   6.1073   6.1464  10.3994  11.6133  11.6965  12.2493
    12.5774  12.7213  12.8588  13.2254  13.2552  13.7660  13.8385  14.0269
    14.0313  14.3095

     occupation numbers 
     1.0000   1.0000   1.0000   1.0000   1.0000   1.0000   1.0000   1.0000
     1.0000   1.0000   1.0000   1.0000   1.0000   1.0000   1.0000   1.0000
     1.0000   1.0000   1.0000   1.0000   1.0000   1.0000   1.0000   1.0000
     1.0000   1.0000   1.0000   1.0000   1.0000   1.0000   1.0000   1.0000
     1.0000   1.0000   1.0000   1.0000   1.0000   1.0000   1.0000   1.0000
     1.0000   1.0000   1.0000   1.0000   1.0000   1.0000   1.0000   1.0000
     1.0000   1.0000   1.0000   1.0000   1.0000   1.0000   1.0000   1.0000
     1.0000   1.0000   1.0000   1.0000   1.0000   1.0000   1.0000   1.0000
     1.0000   1.0000   1.0000   1.0000   1.0000   1.0000   1.0000   1.0000
     1.0000   1.0000   1.0000   1.0000   1.0000   1.0000   1.0000   1.0000
     1.0000   1.0000   1.0000   1.0000   1.0000   1.0000   1.0000   1.0000
     1.0000   1.0000   1.0000   1.0000   1.0000   1.0000   1.0000   1.0000
     1.0000   1.0000   1.0000   1.0000   1.0000   1.0000   1.0000   1.0000
     1.0000   1.0000   1.0000   1.0000   1.0000   1.0000   1.0000   1.0000
     1.0000   1.0000   1.0000   1.0000   0.0000   0.0000   0.0000   0.0000
     0.0000   0.0000   0.0000   0.0000   0.0000   0.0000   0.0000   0.0000
     0.0000   0.0000

          k = 0.0000 0.2391 0.9661 ( 38944 PWs)   bands (ev):

   -82.0521 -82.0517 -82.0505 -82.0500 -48.9261 -48.9256 -48.9244 -48.9240
   -48.0639 -48.0635 -48.0624 -48.0617 -47.3063 -47.3057 -47.3046 -47.3040
   -43.7315 -43.7314 -43.7264 -43.7263 -15.8426 -15.8413 -15.7939 -15.7937
   -15.7339 -15.7337 -15.7195 -15.7182 -15.6817 -15.6817 -15.6616 -15.6615
   -14.7421 -14.7175 -14.7102 -14.6933 -12.6945 -12.6832 -12.6193 -12.6129
   -12.3435 -12.3333 -12.3253 -12.3102 -12.2459 -12.2429 -12.1360 -12.1289
    -2.4014  -2.3026  -2.2473  -2.2011  -0.1943  -0.1335  -0.0614  -0.0053
     0.0543   0.0560   0.1485   0.1883   0.2851   0.3404   0.5764   0.5798
     1.3842   1.4650   1.5805   1.6540   1.9030   1.9562   2.0324   2.0841
     2.1351   2.1878   2.2728   2.3289   2.7016   2.7508   2.8429   2.8754
     2.9250   2.9909   3.0505   3.1083   3.5068   3.5468   3.5938   3.6435
     3.7590   3.8809   3.9691   3.9804   4.0948   4.1141   4.3217   4.3613
     4.4039   4.4147   4.6391   4.6613   4.8339   4.8943   4.9695   4.9755
     5.3823   5.4453   5.5236   5.5541   5.6771   5.7106   5.7799   5.8070
     5.9204   5.9481   6.1043   6.1225  10.9515  11.4316  11.9011  12.1805
    12.6069  12.6753  12.8414  12.9482  13.3058  13.6666  13.7702  13.8856
    13.9964  14.1565

     occupation numbers 
     1.0000   1.0000   1.0000   1.0000   1.0000   1.0000   1.0000   1.0000
     1.0000   1.0000   1.0000   1.0000   1.0000   1.0000   1.0000   1.0000
     1.0000   1.0000   1.0000   1.0000   1.0000   1.0000   1.0000   1.0000
     1.0000   1.0000   1.0000   1.0000   1.0000   1.0000   1.0000   1.0000
     1.0000   1.0000   1.0000   1.0000   1.0000   1.0000   1.0000   1.0000
     1.0000   1.0000   1.0000   1.0000   1.0000   1.0000   1.0000   1.0000
     1.0000   1.0000   1.0000   1.0000   1.0000   1.0000   1.0000   1.0000
     1.0000   1.0000   1.0000   1.0000   1.0000   1.0000   1.0000   1.0000
     1.0000   1.0000   1.0000   1.0000   1.0000   1.0000   1.0000   1.0000
     1.0000   1.0000   1.0000   1.0000   1.0000   1.0000   1.0000   1.0000
     1.0000   1.0000   1.0000   1.0000   1.0000   1.0000   1.0000   1.0000
     1.0000   1.0000   1.0000   1.0000   1.0000   1.0000   1.0000   1.0000
     1.0000   1.0000   1.0000   1.0000   1.0000   1.0000   1.0000   1.0000
     1.0000   1.0000   1.0000   1.0000   1.0000   1.0000   1.0000   1.0000
     1.0000   1.0000   1.0000   1.0000   0.0000   0.0000   0.0000   0.0000
     0.0000   0.0000   0.0000   0.0000   0.0000   0.0000   0.0000   0.0000
     0.0000   0.0000

          k = 0.0000 0.4781 0.0000 ( 38893 PWs)   bands (ev):

   -82.0521 -82.0517 -82.0505 -82.0500 -48.9261 -48.9255 -48.9245 -48.9239
   -48.0639 -48.0635 -48.0624 -48.0617 -47.3063 -47.3056 -47.3046 -47.3040
   -43.7308 -43.7307 -43.7271 -43.7270 -15.8476 -15.8442 -15.7584 -15.7553
   -15.7391 -15.7370 -15.7183 -15.7162 -15.7027 -15.7014 -15.6676 -15.6674
   -14.9164 -14.8094 -14.7176 -14.6679 -12.5532 -12.5386 -12.5211 -12.5120
   -12.4211 -12.3984 -12.3874 -12.2707 -12.1872 -12.1621 -12.1594 -12.1448
    -2.5542  -2.2412  -2.2136  -2.1162  -0.7186  -0.4586  -0.3974  -0.3962
    -0.0533   0.0151   0.0673   0.1675   0.2857   0.3764   0.4043   0.5041
     1.5728   1.6719   1.7127   1.9902   2.0079   2.0462   2.0769   2.2874
     2.3193   2.5714   2.6105   2.6664   2.7129   2.7942   2.9024   3.0830
     3.1376   3.1458   3.1802   3.2033   3.3031   3.3312   3.3608   3.6329
     3.6444   3.6533   3.6721   3.8761   3.9225   4.1509   4.2752   4.3099
     4.4060   4.4700   4.5108   4.5919   4.9248   5.0460   5.0870   5.0972
     5.1171   5.2038   5.5284   5.5574   5.6368   5.6814   5.7184   5.7293
     5.8032   6.1757   6.1836   6.2056   9.7911  11.4441  11.5861  11.8806
    12.3730  12.9933  13.3543  13.6023  13.9436  14.1975  14.3442  14.3574
    14.5097  14.5410

     occupation numbers 
     1.0000   1.0000   1.0000   1.0000   1.0000   1.0000   1.0000   1.0000
     1.0000   1.0000   1.0000   1.0000   1.0000   1.0000   1.0000   1.0000
     1.0000   1.0000   1.0000   1.0000   1.0000   1.0000   1.0000   1.0000
     1.0000   1.0000   1.0000   1.0000   1.0000   1.0000   1.0000   1.0000
     1.0000   1.0000   1.0000   1.0000   1.0000   1.0000   1.0000   1.0000
     1.0000   1.0000   1.0000   1.0000   1.0000   1.0000   1.0000   1.0000
     1.0000   1.0000   1.0000   1.0000   1.0000   1.0000   1.0000   1.0000
     1.0000   1.0000   1.0000   1.0000   1.0000   1.0000   1.0000   1.0000
     1.0000   1.0000   1.0000   1.0000   1.0000   1.0000   1.0000   1.0000
     1.0000   1.0000   1.0000   1.0000   1.0000   1.0000   1.0000   1.0000
     1.0000   1.0000   1.0000   1.0000   1.0000   1.0000   1.0000   1.0000
     1.0000   1.0000   1.0000   1.0000   1.0000   1.0000   1.0000   1.0000
     1.0000   1.0000   1.0000   1.0000   1.0000   1.0000   1.0000   1.0000
[...]
     atom    3 type  2   force =     0.00000000   -0.00000000    0.00000000
     atom    4 type  2   force =     0.00000000    0.00000000    0.00000000
     atom    5 type  1   force =    -0.02797236    0.00000000    0.01191006
     atom    6 type  1   force =     0.02795276   -0.00000000    0.01191216
     atom    7 type  1   force =     0.02797236   -0.00000000   -0.01191006
     atom    8 type  1   force =    -0.02795276    0.00000000   -0.01191216
     atom    9 type  4   force =    -0.00954164    0.00000000   -0.06073424
     atom   10 type  4   force =     0.00960535    0.00000000   -0.06079451
     atom   11 type  4   force =     0.00954164    0.00000000    0.06073424
     atom   12 type  4   force =    -0.00960535    0.00000000    0.06079451
     atom   13 type  3   force =     0.16267629    0.00000000   -1.51295492
     atom   14 type  3   force =    -0.16266576    0.00000000   -1.51296674
     atom   15 type  3   force =    -0.16267629    0.00000000    1.51295492
     atom   16 type  3   force =     0.16266576    0.00000000    1.51296674
     atom   17 type  3   force =     1.22926396    0.00000000   -0.63868509
     atom   18 type  3   force =    -1.22930051    0.00000000   -0.63873383
     atom   19 type  3   force =    -1.22926396    0.00000000    0.63868509
     atom   20 type  3   force =     1.22930051    0.00000000    0.63873383
     atom   21 type  3   force =    -0.67277734   -1.05658199    0.66988959
     atom   22 type  3   force =     0.67280695    1.05659162    0.66987646
     atom   23 type  3   force =     0.67277734   -1.05658199   -0.66988959
     atom   24 type  3   force =    -0.67280695    1.05659162   -0.66987646
     atom   25 type  3   force =     0.67277734    1.05658199   -0.66988959
     atom   26 type  3   force =    -0.67280695   -1.05659162   -0.66987646
     atom   27 type  3   force =    -0.67277734    1.05658199    0.66988959
     atom   28 type  3   force =     0.67280695   -1.05659162    0.66987646
     The ionic contribution  to forces
     atom    1 type  2   force =     0.00042117   -0.00006429    0.00018816
     atom    2 type  2   force =    -0.00023086    0.00019555    0.00005110
     atom    3 type  2   force =     0.00053632    0.00019118    0.00024935
     atom    4 type  2   force =    -0.00011573   -0.00006866   -0.00001009
     atom    5 type  1   force =     3.47489648   -0.00075932   -1.36688929
     atom    6 type  1   force =    -3.47302782    0.00074073   -1.36653511
     atom    7 type  1   force =    -3.47531064    0.00074073    1.36695178
     atom    8 type  1   force =     3.47314685   -0.00075932    1.36639563
     atom    9 type  4   force =    -0.97342491   -0.00017586    1.31098374
     atom   10 type  4   force =     0.97436645    0.00016241    1.31035725
     atom   11 type  4   force =     0.97354149    0.00016241   -1.31105678
     atom   12 type  4   force =    -0.97449896   -0.00017586   -1.31031974
     atom   13 type  3   force =    -3.55627666   -0.00024175    1.88380383
     atom   14 type  3   force =     3.55698847    0.00018479    1.88431453
     atom   15 type  3   force =     3.55650485    0.00018480   -1.88376712
     atom   16 type  3   force =    -3.55713712   -0.00024174   -1.88429512
     atom   17 type  3   force =    -1.55816387   -0.00024087    2.33929279
     atom   18 type  3   force =     1.55931757    0.00017989    2.33942150
     atom   19 type  3   force =     1.55796254    0.00017988   -2.33935666
     atom   20 type  3   force =    -1.55900666   -0.00024087   -2.33935903
     atom   21 type  3   force =     0.56447816    2.56094525   -1.18068788
     atom   22 type  3   force =    -0.56388359   -2.56073098   -1.18093504
     atom   23 type  3   force =    -0.56469066    2.56130665    1.18028974
     atom   24 type  3   force =     0.56385160   -2.56122844    1.18073370
     atom   25 type  3   force =    -0.56458061   -2.56088484    1.18048986
     atom   26 type  3   force =     0.56375542    2.56082973    1.18092269
     atom   27 type  3   force =     0.56457434   -2.56134397   -1.18049889
     atom   28 type  3   force =    -0.56399364    2.56115280   -1.18073492
     The local contribution  to forces
     atom    1 type  2   force =    -0.00000000   -0.00000000    0.00000000
     atom    2 type  2   force =    -0.00499006   -0.00014937   -0.00228185
     atom    3 type  2   force =     0.00007883   -0.00197395    0.00004199
     atom    4 type  2   force =    -0.00491123   -0.00182458   -0.00232384
     atom    5 type  1   force =    -3.45548795   -0.00924493    1.34895933
     atom    6 type  1   force =     3.43234243   -0.00231124    1.34838694
     atom    7 type  1   force =     3.43248016   -0.00231123   -1.35967778
     atom    8 type  1   force =    -3.45162643   -0.00924493   -1.35934626
     atom    9 type  4   force =     0.96009934   -0.00003052   -1.28124412
     atom   10 type  4   force =    -0.96109274   -0.00000764   -1.28052896
     atom   11 type  4   force =    -0.96015688   -0.00000764    1.28131480
     atom   12 type  4   force =     0.96106995   -0.00003050    1.28067528
     atom   13 type  3   force =     3.39898384   -0.00214330   -0.36184615
     atom   14 type  3   force =    -3.40468035   -0.00053583   -0.36255175
     atom   15 type  3   force =    -3.40386902   -0.00053582    0.35962744
     atom   16 type  3   force =     3.39953155   -0.00214332    0.35984188
     atom   17 type  3   force =     0.35702769   -0.00213086   -1.72246281
     atom   18 type  3   force =    -0.36237455   -0.00053272   -1.72272008
     atom   19 type  3   force =    -0.36126353   -0.00053272    1.72031267
     atom   20 type  3   force =     0.35790510   -0.00213088    1.72006220
     atom   21 type  3   force =     0.10129016   -1.51603817    0.51717755
     atom   22 type  3   force =    -0.10718176    1.51386678    0.51751445
     atom   23 type  3   force =    -0.10656210   -1.51505651   -0.51957367
     atom   24 type  3   force =     0.10190308    1.51242155   -0.51962415
     atom   25 type  3   force =    -0.10651593    1.51415199   -0.51951161
     atom   26 type  3   force =     0.10208774   -1.51603964   -0.51987242
     atom   27 type  3   force =     0.10110549    1.51242010    0.51692928
     atom   28 type  3   force =    -0.10722793   -1.51477130    0.51757651
     The core correction contribution to forces
     atom    1 type  2   force =     0.00000000    0.00000000    0.00000000
     atom    2 type  2   force =     0.00000000    0.00000000    0.00000000
     atom    3 type  2   force =     0.00000000    0.00000000    0.00000000
     atom    4 type  2   force =     0.00000000    0.00000000    0.00000000
     atom    5 type  1   force =     0.00364918    0.00027852   -0.00047658
     atom    6 type  1   force =    -0.00291859    0.00006962   -0.00049072
     atom    7 type  1   force =    -0.00284586    0.00006962    0.00088380
     atom    8 type  1   force =     0.00357512    0.00027852    0.00086989
     atom    9 type  4   force =     0.00085339    0.00000595    0.00383306
     atom   10 type  4   force =    -0.00084448    0.00000149    0.00383909
     atom   11 type  4   force =    -0.00083831    0.00000149   -0.00382455
     atom   12 type  4   force =     0.00085965    0.00000595   -0.00383039
     atom   13 type  3   force =    -0.00212394   -0.00000117    0.01278665
     atom   14 type  3   force =     0.00211965   -0.00000029    0.01278680
     atom   15 type  3   force =     0.00211938   -0.00000029   -0.01279157
     atom   16 type  3   force =    -0.00212339   -0.00000117   -0.01279019
     atom   17 type  3   force =    -0.01062916   -0.00000103    0.00637522
     atom   18 type  3   force =     0.01061969   -0.00000026    0.00637409
     atom   19 type  3   force =     0.01062103   -0.00000026   -0.00637568
     atom   20 type  3   force =    -0.01062899   -0.00000103   -0.00637710
     atom   21 type  3   force =     0.00586640    0.00909529   -0.00618396
     atom   22 type  3   force =    -0.00587148   -0.00910069   -0.00618572
     atom   23 type  3   force =    -0.00587001    0.00909880    0.00618372
     atom   24 type  3   force =     0.00586745   -0.00910074    0.00618230
     atom   25 type  3   force =    -0.00587035   -0.00910022    0.00618387
     atom   26 type  3   force =     0.00586607    0.00909508    0.00618171
     atom   27 type  3   force =     0.00586779   -0.00910095   -0.00618455
     atom   28 type  3   force =    -0.00587113    0.00909928   -0.00618557
     The Hubbard contrib.    to forces
     atom    1 type  2   force =     0.00000000    0.00000000    0.00000000
     atom    2 type  2   force =     0.00000000    0.00000000    0.00000000
     atom    3 type  2   force =     0.00000000    0.00000000    0.00000000
     atom    4 type  2   force =     0.00000000    0.00000000    0.00000000
     atom    5 type  1   force =     0.00000000    0.00000000    0.00000000
     atom    6 type  1   force =     0.00000000    0.00000000    0.00000000
     atom    7 type  1   force =     0.00000000    0.00000000    0.00000000
     atom    8 type  1   force =     0.00000000    0.00000000    0.00000000
     atom    9 type  4   force =     0.00000000    0.00000000    0.00000000
     atom   10 type  4   force =     0.00000000    0.00000000    0.00000000
     atom   11 type  4   force =     0.00000000    0.00000000    0.00000000
     atom   12 type  4   force =     0.00000000    0.00000000    0.00000000
     atom   13 type  3   force =     0.00000000    0.00000000    0.00000000
     atom   14 type  3   force =     0.00000000    0.00000000    0.00000000
     atom   15 type  3   force =     0.00000000    0.00000000    0.00000000
     atom   16 type  3   force =     0.00000000    0.00000000    0.00000000
     atom   17 type  3   force =     0.00000000    0.00000000    0.00000000
     atom   18 type  3   force =     0.00000000    0.00000000    0.00000000
     atom   19 type  3   force =     0.00000000    0.00000000    0.00000000
     atom   20 type  3   force =     0.00000000    0.00000000    0.00000000
     atom   21 type  3   force =     0.00000000    0.00000000    0.00000000
     atom   22 type  3   force =     0.00000000    0.00000000    0.00000000
     atom   23 type  3   force =     0.00000000    0.00000000    0.00000000
     atom   24 type  3   force =     0.00000000    0.00000000    0.00000000
     atom   25 type  3   force =     0.00000000    0.00000000    0.00000000
     atom   26 type  3   force =     0.00000000    0.00000000    0.00000000
     atom   27 type  3   force =     0.00000000    0.00000000    0.00000000
     atom   28 type  3   force =     0.00000000    0.00000000    0.00000000
     The SCF correction term to forces
     atom    1 type  2   force =    -0.00000000    0.00000000   -0.00000000
     atom    2 type  2   force =     0.00000001   -0.00000000    0.00000000
     atom    3 type  2   force =    -0.00000000    0.00000000   -0.00000000
     atom    4 type  2   force =     0.00000001    0.00000000    0.00000000
     atom    5 type  1   force =     0.00000245    0.00000003    0.00000510
     atom    6 type  1   force =     0.00000073    0.00000000    0.00000079
     atom    7 type  1   force =    -0.00000238    0.00000000   -0.00000507
     atom    8 type  1   force =    -0.00000068    0.00000003   -0.00000076
     atom    9 type  4   force =     0.00000009    0.00000000    0.00000019
     atom   10 type  4   force =     0.00000077   -0.00000000   -0.00000024
     atom   11 type  4   force =    -0.00000009   -0.00000000   -0.00000018
     atom   12 type  4   force =    -0.00000077    0.00000000    0.00000024
     atom   13 type  3   force =    -0.00000098    0.00000000    0.00000024
     atom   14 type  3   force =     0.00000046   -0.00000000    0.00000115
     atom   15 type  3   force =     0.00000098   -0.00000000   -0.00000024
     atom   16 type  3   force =    -0.00000046    0.00000000   -0.00000114
     atom   17 type  3   force =    -0.00000017    0.00000000    0.00000091
     atom   18 type  3   force =     0.00000088   -0.00000000   -0.00000042
     atom   19 type  3   force =     0.00000018   -0.00000000   -0.00000091
     atom   20 type  3   force =    -0.00000087    0.00000000    0.00000042
     atom   21 type  3   force =    -0.00000039    0.00000031    0.00000028
     atom   22 type  3   force =     0.00000079    0.00000231   -0.00000090
     atom   23 type  3   force =     0.00000040    0.00000031   -0.00000028
     atom   24 type  3   force =    -0.00000079    0.00000231    0.00000091
     atom   25 type  3   force =     0.00000040   -0.00000031   -0.00000028
     atom   26 type  3   force =    -0.00000079   -0.00000231    0.00000091
     atom   27 type  3   force =    -0.00000039   -0.00000031    0.00000028
     atom   28 type  3   force =     0.00000080   -0.00000231   -0.00000090

     Total force =     0.098593     Total SCF correction =     0.000010


     Computing stress (Cartesian axis) and pressure


     negative rho (up, down):  0.000E+00 5.049E-04
          total   stress  (Ry/bohr**3)                   (kbar)     P=      -29.71
  -0.00036408   0.00000000   0.00000003          -53.56        0.00        0.00
   0.00000000  -0.00029300   0.00000000            0.00      -43.10        0.00
   0.00000003   0.00000000   0.00005118            0.00        0.00        7.53

     kinetic stress (kbar)  30027.04      0.00     -0.00
                                0.00  29929.81      0.00
                               -0.00      0.00  30092.60

     local   stress (kbar)  -5028.81     -0.09      0.01
                               -0.09  -5797.02     -0.00
                                0.01     -0.00  -2416.94

     nonloc. stress (kbar)  -8983.61      0.00      0.00
                                0.00  -9050.79      0.00
                                0.00      0.00  -8918.28

     hartree stress (kbar)  14216.34     -0.00     -0.02
                               -0.00  14591.27      0.00
                               -0.02      0.00  12892.15

     exc-cor stress (kbar)  -3406.70      0.00      0.00
                                0.00  -3411.62     -0.00
                                0.00     -0.00  -3402.47

     corecor stress (kbar)  -2919.76     -0.00     -0.00
                               -0.00  -2906.73      0.00
                               -0.00      0.00  -2929.73

     ewald   stress (kbar) -23958.05      0.08      0.01
                                0.08 -23398.02      0.00
                                0.01      0.00 -25309.80

     hubbard stress (kbar)      0.00      0.00      0.00
                                0.00      0.00      0.00
                                0.00      0.00      0.00

     DFT-D   stress (kbar)      0.00      0.00      0.00
                                0.00      0.00      0.00
                                0.00      0.00      0.00

     XDM     stress (kbar)      0.00      0.00      0.00
                                0.00      0.00      0.00
                                0.00      0.00      0.00

     dft-nl  stress (kbar)      0.00      0.00      0.00
                                0.00      0.00      0.00
                                0.00      0.00      0.00

     TS-vdW  stress (kbar)      0.00      0.00      0.00
                                0.00      0.00      0.00
                                0.00      0.00      0.00



     init_run     :   1357.01s CPU   1646.93s WALL (       1 calls)
     electrons    : 147852.06s CPU 179931.07s WALL (       1 calls)
     forces       :    244.55s CPU    266.65s WALL (       1 calls)
     stress       :   1138.83s CPU   1408.13s WALL (       1 calls)

     Called by init_run:
     wfcinit      :   1335.58s CPU   1619.96s WALL (       1 calls)
     wfcinit:atom :      1.74s CPU      1.98s WALL (     184 calls)
     wfcinit:wfcr :   1326.38s CPU   1609.06s WALL (     184 calls)
     potinit      :      7.67s CPU     10.12s WALL (       1 calls)
     hinit0       :      8.02s CPU      9.41s WALL (       1 calls)

     Called by electrons:
     c_bands      : 123500.87s CPU 150622.71s WALL (      44 calls)
     sum_band     :  23908.93s CPU  28746.54s WALL (      44 calls)
     v_of_rho     :    116.92s CPU    140.88s WALL (      45 calls)
     v_h          :      8.13s CPU      9.76s WALL (      45 calls)
     v_xc         :    113.03s CPU    137.00s WALL (      47 calls)
     newd         :    189.90s CPU    258.66s WALL (      45 calls)
     PAW_pot      :     44.01s CPU     52.60s WALL (      45 calls)
     mix_rho      :     71.25s CPU     86.01s WALL (      44 calls)

     Called by c_bands:
     init_us_2    :    285.73s CPU    356.16s WALL (   16744 calls)
     cegterg      : 122257.18s CPU 149062.92s WALL (    8096 calls)

     Called by sum_band:
     sum_band:wei :      0.50s CPU      0.69s WALL (      44 calls)
     sum_band:loo :  23410.24s CPU  28103.19s WALL (      44 calls)
     sum_band:buf :     77.65s CPU    104.85s WALL (    8096 calls)
     sum_band:ini :    119.43s CPU    138.24s WALL (    8096 calls)
     sum_band:cal :   2016.16s CPU   2387.70s WALL (    8096 calls)
     sum_band:bec :      9.88s CPU     10.83s WALL (    8096 calls)
     addusdens    :    397.30s CPU    535.40s WALL (      44 calls)
     addusd:skk   :      2.53s CPU      3.04s WALL (     132 calls)
     addusd:dgemm :    125.97s CPU    194.90s WALL (     264 calls)
     addusd:qvan2 :    264.39s CPU    331.50s WALL (     264 calls)

     Called by *egterg:
     cdiaghg      :   2946.72s CPU   3640.47s WALL (   28708 calls)
     cegterg:over :   5801.31s CPU   6927.94s WALL (   20612 calls)
     cegterg:upda :   1375.69s CPU   1722.30s WALL (   20612 calls)
     cegterg:last :   2628.34s CPU   3294.51s WALL (   13207 calls)
     h_psi        : 103066.94s CPU 125773.61s WALL (   28892 calls)
     s_psi        :   2693.67s CPU   3358.63s WALL (   28892 calls)
     g_psi        :     19.91s CPU     24.61s WALL (   20612 calls)

     Called by h_psi:
     h_psi:calbec :   5054.78s CPU   6129.03s WALL (   28892 calls)
     vloc_psi     :  95100.95s CPU 115941.73s WALL (   28892 calls)
     add_vuspsi   :   2796.48s CPU   3556.18s WALL (   28892 calls)

     General routines
     calbec       :   7463.57s CPU   8936.03s WALL (   37908 calls)
     fft          :    132.54s CPU    160.11s WALL (    1163 calls)
     ffts         :     13.60s CPU     16.26s WALL (     178 calls)
     fftw         : 115756.25s CPU 140852.48s WALL ( 5846500 calls)
     interpolate  :     16.34s CPU     19.75s WALL (      90 calls)

     Parallel routines
     fft_scatt_xy :    608.25s CPU    611.02s WALL ( 5847841 calls)
     fft_scatt_yz : 112160.71s CPU 137202.38s WALL ( 5847841 calls)

     PAW routines
     PAW_pot      :     44.01s CPU     52.60s WALL (      45 calls)
     PAW_symme    :      4.85s CPU      5.59s WALL (      89 calls)

     PWSCF        :   1d17h50m CPU   2d 2h54m WALL


   This run was terminated on:  14:28:21   6Feb2023            

=------------------------------------------------------------------------------=
   JOB DONE.
=------------------------------------------------------------------------------=
Note: The following floating-point exceptions are signalling: IEEE_UNDERFLOW_FLAG IEEE_DENORMAL
Note: The following floating-point exceptions are signalling: IEEE_DENORMAL
Note: The following floating-point exceptions are signalling: IEEE_DENORMAL
Note: The following floating-point exceptions are signalling: IEEE_DENORMAL
Note: The following floating-point exceptions are signalling: IEEE_DENORMAL
Note: The following floating-point exceptions are signalling: IEEE_DENORMAL
Note: The following floating-point exceptions are signalling: IEEE_DENORMAL
Note: The following floating-point exceptions are signalling: IEEE_DENORMAL
Note: The following floating-point exceptions are signalling: IEEE_DENORMAL
Note: The following floating-point exceptions are signalling: IEEE_DENORMAL
