
     Program PWSCF v.6.7MaX starts on  1Feb2023 at 21:22:12 

     This program is part of the open-source Quantum ESPRESSO suite
     for quantum simulation of materials; please cite
         "P. Giannozzi et al., J. Phys.:Condens. Matter 21 395502 (2009);
         "P. Giannozzi et al., J. Phys.:Condens. Matter 29 465901 (2017);
          URL http://www.quantum-espresso.org", 
     in publications or presentations arising from this work. More details at
     http://www.quantum-espresso.org/quote

     Parallel version (MPI), running on    12 processors

     MPI processes distributed on     1 nodes
     R & G space division:  proc/nbgrp/npool/nimage =      12
     Reading input from scale_2dab-00.in

     Current dimensions of program PWSCF are:
     Max number of different atomic species (ntypx) = 10
     Max number of k-points (npk) =  40000
     Max angular momentum in pseudopotentials (lmaxx) =  3
     Message from routine read_pp_mesh:
     mesh size missing, using the one in header
     file Fe.pbe-spn-kjpaw_psl.0.2.1.UPF: wavefunction(s)  3D renormalized
     file O.pbe-n-kjpaw_psl.0.1.UPF: wavefunction(s)  2P renormalized

     Subspace diagonalization in iterative solution of the eigenvalue problem:
     a serial algorithm will be used

     Message from routine setup:
     using ibrav=0 with symmetry is DISCOURAGED, use correct ibrav instead

     Parallelization info
     --------------------
     sticks:   dense  smooth     PW     G-vecs:    dense   smooth      PW
     Min        1493     553    149                97373    21957    3096
     Max        1495     554    151                97374    21960    3097
     Sum       17927    6645   1805              1168479   263495   37159



     bravais-lattice index     =            0
     lattice parameter (alat)  =      18.6818  a.u.
     unit-cell volume          =    1949.7229 (a.u.)^3
     number of atoms/cell      =           28
     number of atomic types    =            4
     number of electrons       =       216.00
     number of Kohn-Sham states=          130
     kinetic-energy cutoff     =     100.0000  Ry
     charge density cutoff     =    1080.0000  Ry
     scf convergence threshold =      2.0E-10
     mixing beta               =       0.4000
     number of iterations used =            8  plain     mixing
     Exchange-correlation= PBE
                           (   1   4   3   4   0   0   0)

     celldm(1)=  18.681804  celldm(2)=   0.000000  celldm(3)=   0.000000
     celldm(4)=   0.000000  celldm(5)=   0.000000  celldm(6)=   0.000000

     crystal axes: (cart. coord. in units of alat)
               a(1) = (   1.000000   0.000000   0.000000 )  
               a(2) = (   0.000000   0.597590   0.000000 )  
               a(3) = (   0.000000   0.000000   0.500395 )  

     reciprocal axes: (cart. coord. in units 2 pi/alat)
               b(1) = (  1.000000  0.000000  0.000000 )  
               b(2) = (  0.000000  1.673388  0.000000 )  
               b(3) = (  0.000000  0.000000  1.998420 )  


     PseudoPot. # 1 for Fe read from file:
     /opt/QEpot/SSSP_precision_pseudos/Fe.pbe-spn-kjpaw_psl.0.2.1.UPF
     MD5 check sum: e86618425769142926afa95317d90200
     Pseudo is Projector augmented-wave + core cor, Zval = 16.0
     Generated using "atomic" code by A. Dal Corso  v.5.0.99 svn rev. 10869
     Shape of augmentation charge: PSQ
     Using radial grid of 1191 points,  6 beta functions with: 
                l(1) =   0
                l(2) =   0
                l(3) =   1
                l(4) =   1
                l(5) =   2
                l(6) =   2
     Q(r) pseudized with 0 coefficients 


     PseudoPot. # 2 for Na read from file:
     /opt/QEpot/SSSP_precision_pseudos/Na_ONCV_PBE-1.0.oncvpsp.upf
     MD5 check sum: 24a298df0a6742ae313db96548fdb2a4
     Pseudo is Norm-conserving, Zval =  9.0
     Generated using ONCVPSP code by D. R. Hamann
     Using radial grid of 1992 points,  4 beta functions with: 
                l(1) =   0
                l(2) =   0
                l(3) =   1
                l(4) =   1

     PseudoPot. # 3 for O  read from file:
     /opt/QEpot/SSSP_precision_pseudos/O.pbe-n-kjpaw_psl.0.1.UPF
     MD5 check sum: 0234752ac141de4415c5fc33072bef88
     Pseudo is Projector augmented-wave + core cor, Zval =  6.0
     Generated using "atomic" code by A. Dal Corso  v.5.0.99 svn rev. 10869
     Shape of augmentation charge: BESSEL
     Using radial grid of 1095 points,  4 beta functions with: 
                l(1) =   0
                l(2) =   0
                l(3) =   1
                l(4) =   1
     Q(r) pseudized with 0 coefficients 


     PseudoPot. # 4 for P  read from file:
     /opt/QEpot/SSSP_precision_pseudos/P.pbe-n-rrkjus_psl.1.0.0.UPF
     MD5 check sum: 8b930f418f0a4573dca56cd030ffe088
     Pseudo is Ultrasoft + core correction, Zval =  5.0
     Generated using "atomic" code by A. Dal Corso  v.5.1
     Using radial grid of 1147 points,  6 beta functions with: 
                l(1) =   0
                l(2) =   0
                l(3) =   1
                l(4) =   1
                l(5) =   2
                l(6) =   2
     Q(r) pseudized with 0 coefficients 


     atomic species   valence    mass     pseudopotential
        Fe            16.00    55.84500     Fe( 1.00)
        Na             9.00    22.98977     Na( 1.00)
        O              6.00    15.99940     O ( 1.00)
        P              5.00    30.97376     P ( 1.00)

     Starting magnetic structure 
     atomic species   magnetization
        Fe           0.312
        Na           0.000
        O            0.000
        P            0.000

      4 Sym. Ops., with inversion, found ( 2 have fractional translation)


                                    s                        frac. trans.

      isym =  1     identity                                     

 cryst.   s( 1) = (     1          0          0      )
                  (     0          1          0      )
                  (     0          0          1      )

 cart.    s( 1) = (  1.0000000  0.0000000  0.0000000 )
                  (  0.0000000  1.0000000  0.0000000 )
                  (  0.0000000  0.0000000  1.0000000 )


      isym =  2     180 deg rotation - cart. axis [0,1,0]        

 cryst.   s( 2) = (    -1          0          0      )    f =(  0.0000000 )
                  (     0          1          0      )       ( -0.4999980 )
                  (     0          0         -1      )       (  0.0000000 )

 cart.    s( 2) = ( -1.0000000  0.0000000  0.0000000 )    f =(  0.0000000 )
                  (  0.0000000  1.0000000  0.0000000 )       ( -0.2987938 )
                  (  0.0000000  0.0000000 -1.0000000 )       (  0.0000000 )


      isym =  3     inversion                                    

 cryst.   s( 3) = (    -1          0          0      )
                  (     0         -1          0      )
                  (     0          0         -1      )

 cart.    s( 3) = ( -1.0000000  0.0000000  0.0000000 )
                  (  0.0000000 -1.0000000  0.0000000 )
                  (  0.0000000  0.0000000 -1.0000000 )


      isym =  4     inv. 180 deg rotation - cart. axis [0,1,0]   

 cryst.   s( 4) = (     1          0          0      )    f =(  0.0000000 )
                  (     0         -1          0      )       (  0.4999980 )
                  (     0          0          1      )       (  0.0000000 )

 cart.    s( 4) = (  1.0000000  0.0000000  0.0000000 )    f =(  0.0000000 )
                  (  0.0000000 -1.0000000  0.0000000 )       (  0.2987938 )
                  (  0.0000000  0.0000000  1.0000000 )       (  0.0000000 )


   Cartesian axes

     site n.     atom                  positions (alat units)
         1           Na  tau(   1) = (   0.0000000   0.0000000   0.0000000  )
         2           Na  tau(   2) = (   0.5000030   0.5975899   0.2501991  )
         3           Na  tau(   3) = (   0.0000000   0.2987962   0.0000000  )
         4           Na  tau(   4) = (   0.5000030   0.2987962   0.2501991  )
         5           Fe  tau(   5) = (   0.2870220   0.4481948   0.4935829  )
         6           Fe  tau(   6) = (   0.2129810   0.1493981   0.2433837  )
         7           Fe  tau(   7) = (   0.7129840   0.1493981   0.0068154  )
         8           Fe  tau(   8) = (   0.7870240   0.4481948   0.2570145  )
         9           P   tau(   9) = (   0.1083410   0.4481948   0.2214814  )
        10           P   tau(  10) = (   0.3916620   0.1493981   0.4716806  )
        11           P   tau(  11) = (   0.8916650   0.1493981   0.2789168  )
        12           P   tau(  12) = (   0.6083440   0.4481948   0.0287177  )
        13           O   tau(  13) = (   0.1140120   0.4481948   0.3765094  )
        14           O   tau(  14) = (   0.3859910   0.1493981   0.1263103  )
        15           O   tau(  15) = (   0.8859940   0.1493981   0.1238894  )
        16           O   tau(  16) = (   0.6140150   0.4481948   0.3740885  )
        17           O   tau(  17) = (   0.4685140   0.4481948   0.0806237  )
        18           O   tau(  18) = (   0.0314890   0.1493981   0.3308228  )
        19           O   tau(  19) = (   0.5314920   0.1493981   0.4197746  )
        20           O   tau(  20) = (   0.9685170   0.4481948   0.1695754  )
        21           O   tau(  21) = (   0.1755910   0.5644936   0.1560302  )
        22           O   tau(  22) = (   0.3244120   0.0330993   0.4062294  )
        23           O   tau(  23) = (   0.8244150   0.2656968   0.3443680  )
        24           O   tau(  24) = (   0.6755940   0.3318961   0.0941689  )
        25           O   tau(  25) = (   0.8244150   0.0330993   0.3443680  )
        26           O   tau(  26) = (   0.6755940   0.5644936   0.0941689  )
        27           O   tau(  27) = (   0.1755910   0.3318961   0.1560302  )
        28           O   tau(  28) = (   0.3244120   0.2656968   0.4062294  )

   Crystallographic axes

     site n.     atom                  positions (cryst. coord.)
         1           Na  tau(   1) = (  0.0000000  0.0000000  0.0000000  )
         2           Na  tau(   2) = (  0.5000030  1.0000000  0.5000030  )
         3           Na  tau(   3) = (  0.0000000  0.5000020  0.0000000  )
         4           Na  tau(   4) = (  0.5000030  0.5000020  0.5000030  )
         5           Fe  tau(   5) = (  0.2870220  0.7500040  0.9863860  )
         6           Fe  tau(   6) = (  0.2129810  0.2500010  0.4863830  )
         7           Fe  tau(   7) = (  0.7129840  0.2500010  0.0136200  )
         8           Fe  tau(   8) = (  0.7870240  0.7500040  0.5136230  )
         9           P   tau(   9) = (  0.1083410  0.7500040  0.4426130  )
        10           P   tau(  10) = (  0.3916620  0.2500010  0.9426160  )
        11           P   tau(  11) = (  0.8916650  0.2500010  0.5573930  )
        12           P   tau(  12) = (  0.6083440  0.7500040  0.0573900  )
        13           O   tau(  13) = (  0.1140120  0.7500040  0.7524240  )
        14           O   tau(  14) = (  0.3859910  0.2500010  0.2524210  )
        15           O   tau(  15) = (  0.8859940  0.2500010  0.2475830  )
        16           O   tau(  16) = (  0.6140150  0.7500040  0.7475860  )
        17           O   tau(  17) = (  0.4685140  0.7500040  0.1611200  )
        18           O   tau(  18) = (  0.0314890  0.2500010  0.6611230  )
        19           O   tau(  19) = (  0.5314920  0.2500010  0.8388860  )
        20           O   tau(  20) = (  0.9685170  0.7500040  0.3388830  )
        21           O   tau(  21) = (  0.1755910  0.9446170  0.3118140  )
        22           O   tau(  22) = (  0.3244120  0.0553880  0.8118170  )
        23           O   tau(  23) = (  0.8244150  0.4446140  0.6881920  )
        24           O   tau(  24) = (  0.6755940  0.5553910  0.1881890  )
        25           O   tau(  25) = (  0.8244150  0.0553880  0.6881920  )
        26           O   tau(  26) = (  0.6755940  0.9446170  0.1881890  )
        27           O   tau(  27) = (  0.1755910  0.5553910  0.3118140  )
        28           O   tau(  28) = (  0.3244120  0.4446140  0.8118170  )

     number of k points=    92  Marzari-Vanderbilt smearing, width (Ry)=  0.0073
                       cart. coord. in units 2pi/alat
        k(    1) = (   0.0000000   0.0000000   0.0000000), wk =   0.0031746
        k(    2) = (   0.0000000   0.0000000   0.2220467), wk =   0.0063492
        k(    3) = (   0.0000000   0.0000000   0.4440934), wk =   0.0063492
        k(    4) = (   0.0000000   0.0000000   0.6661401), wk =   0.0063492
        k(    5) = (   0.0000000   0.0000000   0.8881868), wk =   0.0063492
        k(    6) = (   0.0000000   0.2390555   0.0000000), wk =   0.0063492
        k(    7) = (   0.0000000   0.2390555   0.2220467), wk =   0.0126984
        k(    8) = (   0.0000000   0.2390555   0.4440934), wk =   0.0126984
        k(    9) = (   0.0000000   0.2390555   0.6661401), wk =   0.0126984
        k(   10) = (   0.0000000   0.2390555   0.8881868), wk =   0.0126984
        k(   11) = (   0.0000000   0.4781110   0.0000000), wk =   0.0063492
        k(   12) = (   0.0000000   0.4781110   0.2220467), wk =   0.0126984
        k(   13) = (   0.0000000   0.4781110   0.4440934), wk =   0.0126984
        k(   14) = (   0.0000000   0.4781110   0.6661401), wk =   0.0126984
        k(   15) = (   0.0000000   0.4781110   0.8881868), wk =   0.0126984
        k(   16) = (   0.0000000   0.7171664   0.0000000), wk =   0.0063492
        k(   17) = (   0.0000000   0.7171664   0.2220467), wk =   0.0126984
        k(   18) = (   0.0000000   0.7171664   0.4440934), wk =   0.0126984
        k(   19) = (   0.0000000   0.7171664   0.6661401), wk =   0.0126984
        k(   20) = (   0.0000000   0.7171664   0.8881868), wk =   0.0126984
        k(   21) = (   0.2000000   0.0000000   0.0000000), wk =   0.0063492
        k(   22) = (   0.2000000   0.0000000   0.2220467), wk =   0.0063492
        k(   23) = (   0.2000000   0.0000000   0.4440934), wk =   0.0063492
        k(   24) = (   0.2000000   0.0000000   0.6661401), wk =   0.0063492
        k(   25) = (   0.2000000   0.0000000   0.8881868), wk =   0.0063492
        k(   26) = (   0.2000000   0.2390555   0.0000000), wk =   0.0126984
        k(   27) = (   0.2000000   0.2390555   0.2220467), wk =   0.0126984
        k(   28) = (   0.2000000   0.2390555   0.4440934), wk =   0.0126984
        k(   29) = (   0.2000000   0.2390555   0.6661401), wk =   0.0126984
        k(   30) = (   0.2000000   0.2390555   0.8881868), wk =   0.0126984
        k(   31) = (   0.2000000   0.4781110   0.0000000), wk =   0.0126984
        k(   32) = (   0.2000000   0.4781110   0.2220467), wk =   0.0126984
        k(   33) = (   0.2000000   0.4781110   0.4440934), wk =   0.0126984
        k(   34) = (   0.2000000   0.4781110   0.6661401), wk =   0.0126984
        k(   35) = (   0.2000000   0.4781110   0.8881868), wk =   0.0126984
        k(   36) = (   0.2000000   0.7171664   0.0000000), wk =   0.0126984
        k(   37) = (   0.2000000   0.7171664   0.2220467), wk =   0.0126984
        k(   38) = (   0.2000000   0.7171664   0.4440934), wk =   0.0126984
        k(   39) = (   0.2000000   0.7171664   0.6661401), wk =   0.0126984
        k(   40) = (   0.2000000   0.7171664   0.8881868), wk =   0.0126984
        k(   41) = (   0.4000000   0.0000000   0.0000000), wk =   0.0063492
        k(   42) = (   0.4000000   0.0000000   0.2220467), wk =   0.0063492
        k(   43) = (   0.4000000   0.0000000   0.4440934), wk =   0.0063492
        k(   44) = (   0.4000000   0.0000000   0.6661401), wk =   0.0063492
        k(   45) = (   0.4000000   0.0000000   0.8881868), wk =   0.0063492
        k(   46) = (   0.4000000   0.2390555   0.0000000), wk =   0.0126984
        k(   47) = (   0.4000000   0.2390555   0.2220467), wk =   0.0126984
        k(   48) = (   0.4000000   0.2390555   0.4440934), wk =   0.0126984
        k(   49) = (   0.4000000   0.2390555   0.6661401), wk =   0.0126984
        k(   50) = (   0.4000000   0.2390555   0.8881868), wk =   0.0126984
        k(   51) = (   0.4000000   0.4781110   0.0000000), wk =   0.0126984
        k(   52) = (   0.4000000   0.4781110   0.2220467), wk =   0.0126984
        k(   53) = (   0.4000000   0.4781110   0.4440934), wk =   0.0126984
        k(   54) = (   0.4000000   0.4781110   0.6661401), wk =   0.0126984
        k(   55) = (   0.4000000   0.4781110   0.8881868), wk =   0.0126984
        k(   56) = (   0.4000000   0.7171664   0.0000000), wk =   0.0126984
        k(   57) = (   0.4000000   0.7171664   0.2220467), wk =   0.0126984
        k(   58) = (   0.4000000   0.7171664   0.4440934), wk =   0.0126984
        k(   59) = (   0.4000000   0.7171664   0.6661401), wk =   0.0126984
        k(   60) = (   0.4000000   0.7171664   0.8881868), wk =   0.0126984
        k(   61) = (  -0.2000000   0.0000000   0.2220467), wk =   0.0063492
        k(   62) = (  -0.2000000   0.0000000   0.4440934), wk =   0.0063492
        k(   63) = (  -0.2000000   0.0000000   0.6661401), wk =   0.0063492
        k(   64) = (  -0.2000000   0.0000000   0.8881868), wk =   0.0063492
        k(   65) = (  -0.2000000  -0.2390555   0.2220467), wk =   0.0126984
        k(   66) = (  -0.2000000  -0.2390555   0.4440934), wk =   0.0126984
        k(   67) = (  -0.2000000  -0.2390555   0.6661401), wk =   0.0126984
        k(   68) = (  -0.2000000  -0.2390555   0.8881868), wk =   0.0126984
        k(   69) = (  -0.2000000  -0.4781110   0.2220467), wk =   0.0126984
        k(   70) = (  -0.2000000  -0.4781110   0.4440934), wk =   0.0126984
        k(   71) = (  -0.2000000  -0.4781110   0.6661401), wk =   0.0126984
        k(   72) = (  -0.2000000  -0.4781110   0.8881868), wk =   0.0126984
        k(   73) = (  -0.2000000  -0.7171664   0.2220467), wk =   0.0126984
        k(   74) = (  -0.2000000  -0.7171664   0.4440934), wk =   0.0126984
        k(   75) = (  -0.2000000  -0.7171664   0.6661401), wk =   0.0126984
        k(   76) = (  -0.2000000  -0.7171664   0.8881868), wk =   0.0126984
        k(   77) = (  -0.4000000   0.0000000   0.2220467), wk =   0.0063492
        k(   78) = (  -0.4000000   0.0000000   0.4440934), wk =   0.0063492
        k(   79) = (  -0.4000000   0.0000000   0.6661401), wk =   0.0063492
        k(   80) = (  -0.4000000   0.0000000   0.8881868), wk =   0.0063492
        k(   81) = (  -0.4000000  -0.2390555   0.2220467), wk =   0.0126984
        k(   82) = (  -0.4000000  -0.2390555   0.4440934), wk =   0.0126984
        k(   83) = (  -0.4000000  -0.2390555   0.6661401), wk =   0.0126984
        k(   84) = (  -0.4000000  -0.2390555   0.8881868), wk =   0.0126984
        k(   85) = (  -0.4000000  -0.4781110   0.2220467), wk =   0.0126984
        k(   86) = (  -0.4000000  -0.4781110   0.4440934), wk =   0.0126984
        k(   87) = (  -0.4000000  -0.4781110   0.6661401), wk =   0.0126984
        k(   88) = (  -0.4000000  -0.4781110   0.8881868), wk =   0.0126984
        k(   89) = (  -0.4000000  -0.7171664   0.2220467), wk =   0.0126984
        k(   90) = (  -0.4000000  -0.7171664   0.4440934), wk =   0.0126984
        k(   91) = (  -0.4000000  -0.7171664   0.6661401), wk =   0.0126984
        k(   92) = (  -0.4000000  -0.7171664   0.8881868), wk =   0.0126984

                       cryst. coord.
        k(    1) = (   0.0000000   0.0000000   0.0000000), wk =   0.0031746
        k(    2) = (   0.0000000   0.0000000   0.1111111), wk =   0.0063492
        k(    3) = (   0.0000000   0.0000000   0.2222222), wk =   0.0063492
        k(    4) = (   0.0000000   0.0000000   0.3333333), wk =   0.0063492
        k(    5) = (   0.0000000   0.0000000   0.4444444), wk =   0.0063492
        k(    6) = (   0.0000000   0.1428571   0.0000000), wk =   0.0063492
        k(    7) = (   0.0000000   0.1428571   0.1111111), wk =   0.0126984
        k(    8) = (   0.0000000   0.1428571   0.2222222), wk =   0.0126984
        k(    9) = (   0.0000000   0.1428571   0.3333333), wk =   0.0126984
        k(   10) = (   0.0000000   0.1428571   0.4444444), wk =   0.0126984
        k(   11) = (   0.0000000   0.2857143   0.0000000), wk =   0.0063492
        k(   12) = (   0.0000000   0.2857143   0.1111111), wk =   0.0126984
        k(   13) = (   0.0000000   0.2857143   0.2222222), wk =   0.0126984
        k(   14) = (   0.0000000   0.2857143   0.3333333), wk =   0.0126984
        k(   15) = (   0.0000000   0.2857143   0.4444444), wk =   0.0126984
        k(   16) = (   0.0000000   0.4285714   0.0000000), wk =   0.0063492
        k(   17) = (   0.0000000   0.4285714   0.1111111), wk =   0.0126984
        k(   18) = (   0.0000000   0.4285714   0.2222222), wk =   0.0126984
        k(   19) = (   0.0000000   0.4285714   0.3333333), wk =   0.0126984
        k(   20) = (   0.0000000   0.4285714   0.4444444), wk =   0.0126984
        k(   21) = (   0.2000000   0.0000000   0.0000000), wk =   0.0063492
        k(   22) = (   0.2000000   0.0000000   0.1111111), wk =   0.0063492
        k(   23) = (   0.2000000   0.0000000   0.2222222), wk =   0.0063492
        k(   24) = (   0.2000000   0.0000000   0.3333333), wk =   0.0063492
        k(   25) = (   0.2000000   0.0000000   0.4444444), wk =   0.0063492
        k(   26) = (   0.2000000   0.1428571   0.0000000), wk =   0.0126984
        k(   27) = (   0.2000000   0.1428571   0.1111111), wk =   0.0126984
        k(   28) = (   0.2000000   0.1428571   0.2222222), wk =   0.0126984
        k(   29) = (   0.2000000   0.1428571   0.3333333), wk =   0.0126984
        k(   30) = (   0.2000000   0.1428571   0.4444444), wk =   0.0126984
        k(   31) = (   0.2000000   0.2857143   0.0000000), wk =   0.0126984
        k(   32) = (   0.2000000   0.2857143   0.1111111), wk =   0.0126984
        k(   33) = (   0.2000000   0.2857143   0.2222222), wk =   0.0126984
        k(   34) = (   0.2000000   0.2857143   0.3333333), wk =   0.0126984
        k(   35) = (   0.2000000   0.2857143   0.4444444), wk =   0.0126984
        k(   36) = (   0.2000000   0.4285714   0.0000000), wk =   0.0126984
        k(   37) = (   0.2000000   0.4285714   0.1111111), wk =   0.0126984
        k(   38) = (   0.2000000   0.4285714   0.2222222), wk =   0.0126984
        k(   39) = (   0.2000000   0.4285714   0.3333333), wk =   0.0126984
        k(   40) = (   0.2000000   0.4285714   0.4444444), wk =   0.0126984
        k(   41) = (   0.4000000   0.0000000   0.0000000), wk =   0.0063492
        k(   42) = (   0.4000000   0.0000000   0.1111111), wk =   0.0063492
        k(   43) = (   0.4000000   0.0000000   0.2222222), wk =   0.0063492
        k(   44) = (   0.4000000   0.0000000   0.3333333), wk =   0.0063492
        k(   45) = (   0.4000000   0.0000000   0.4444444), wk =   0.0063492
        k(   46) = (   0.4000000   0.1428571   0.0000000), wk =   0.0126984
        k(   47) = (   0.4000000   0.1428571   0.1111111), wk =   0.0126984
        k(   48) = (   0.4000000   0.1428571   0.2222222), wk =   0.0126984
        k(   49) = (   0.4000000   0.1428571   0.3333333), wk =   0.0126984
        k(   50) = (   0.4000000   0.1428571   0.4444444), wk =   0.0126984
        k(   51) = (   0.4000000   0.2857143   0.0000000), wk =   0.0126984
        k(   52) = (   0.4000000   0.2857143   0.1111111), wk =   0.0126984
        k(   53) = (   0.4000000   0.2857143   0.2222222), wk =   0.0126984
        k(   54) = (   0.4000000   0.2857143   0.3333333), wk =   0.0126984
        k(   55) = (   0.4000000   0.2857143   0.4444444), wk =   0.0126984
        k(   56) = (   0.4000000   0.4285714   0.0000000), wk =   0.0126984
        k(   57) = (   0.4000000   0.4285714   0.1111111), wk =   0.0126984
        k(   58) = (   0.4000000   0.4285714   0.2222222), wk =   0.0126984
        k(   59) = (   0.4000000   0.4285714   0.3333333), wk =   0.0126984
        k(   60) = (   0.4000000   0.4285714   0.4444444), wk =   0.0126984
        k(   61) = (  -0.2000000   0.0000000   0.1111111), wk =   0.0063492
        k(   62) = (  -0.2000000   0.0000000   0.2222222), wk =   0.0063492
        k(   63) = (  -0.2000000   0.0000000   0.3333333), wk =   0.0063492
        k(   64) = (  -0.2000000   0.0000000   0.4444444), wk =   0.0063492
        k(   65) = (  -0.2000000  -0.1428571   0.1111111), wk =   0.0126984
        k(   66) = (  -0.2000000  -0.1428571   0.2222222), wk =   0.0126984
        k(   67) = (  -0.2000000  -0.1428571   0.3333333), wk =   0.0126984
        k(   68) = (  -0.2000000  -0.1428571   0.4444444), wk =   0.0126984
        k(   69) = (  -0.2000000  -0.2857143   0.1111111), wk =   0.0126984
        k(   70) = (  -0.2000000  -0.2857143   0.2222222), wk =   0.0126984
        k(   71) = (  -0.2000000  -0.2857143   0.3333333), wk =   0.0126984
        k(   72) = (  -0.2000000  -0.2857143   0.4444444), wk =   0.0126984
        k(   73) = (  -0.2000000  -0.4285714   0.1111111), wk =   0.0126984
        k(   74) = (  -0.2000000  -0.4285714   0.2222222), wk =   0.0126984
        k(   75) = (  -0.2000000  -0.4285714   0.3333333), wk =   0.0126984
        k(   76) = (  -0.2000000  -0.4285714   0.4444444), wk =   0.0126984
        k(   77) = (  -0.4000000   0.0000000   0.1111111), wk =   0.0063492
        k(   78) = (  -0.4000000   0.0000000   0.2222222), wk =   0.0063492
        k(   79) = (  -0.4000000   0.0000000   0.3333333), wk =   0.0063492
        k(   80) = (  -0.4000000   0.0000000   0.4444444), wk =   0.0063492
        k(   81) = (  -0.4000000  -0.1428571   0.1111111), wk =   0.0126984
        k(   82) = (  -0.4000000  -0.1428571   0.2222222), wk =   0.0126984
        k(   83) = (  -0.4000000  -0.1428571   0.3333333), wk =   0.0126984
        k(   84) = (  -0.4000000  -0.1428571   0.4444444), wk =   0.0126984
        k(   85) = (  -0.4000000  -0.2857143   0.1111111), wk =   0.0126984
        k(   86) = (  -0.4000000  -0.2857143   0.2222222), wk =   0.0126984
        k(   87) = (  -0.4000000  -0.2857143   0.3333333), wk =   0.0126984
        k(   88) = (  -0.4000000  -0.2857143   0.4444444), wk =   0.0126984
        k(   89) = (  -0.4000000  -0.4285714   0.1111111), wk =   0.0126984
        k(   90) = (  -0.4000000  -0.4285714   0.2222222), wk =   0.0126984
        k(   91) = (  -0.4000000  -0.4285714   0.3333333), wk =   0.0126984
        k(   92) = (  -0.4000000  -0.4285714   0.4444444), wk =   0.0126984

     Dense  grid:  1168479 G-vectors     FFT dimensions: ( 200, 120, 100)

     Smooth grid:   263495 G-vectors     FFT dimensions: ( 120,  72,  60)

     Dynamical RAM for                 wfc:       5.44 MB

     Dynamical RAM for     wfc (w. buffer):    1006.61 MB

     Dynamical RAM for           str. fact:       5.94 MB

     Dynamical RAM for           local pot:       0.00 MB

     Dynamical RAM for          nlocal pot:      12.72 MB

     Dynamical RAM for                qrad:      10.54 MB

     Dynamical RAM for          rho,v,vnew:      18.80 MB

     Dynamical RAM for               rhoin:       6.27 MB

     Dynamical RAM for            rho*nmix:      47.55 MB

     Dynamical RAM for           G-vectors:       5.74 MB

     Dynamical RAM for          h,s,v(r/c):       3.09 MB

     Dynamical RAM for          <psi|beta>:       0.60 MB

     Dynamical RAM for                 psi:      10.88 MB

     Dynamical RAM for                hpsi:      10.88 MB

     Dynamical RAM for                spsi:      10.88 MB

     Dynamical RAM for      wfcinit/wfcrot:      13.25 MB

     Dynamical RAM for           addusdens:     301.62 MB

     Dynamical RAM for          addusforce:     346.32 MB

     Dynamical RAM for         addusstress:     300.87 MB

     Estimated static dynamical RAM per process >       1.10 GB

     Estimated max dynamical RAM per process >       1.44 GB

     Estimated total dynamical RAM >      17.32 GB

     Check: negative core charge=   -0.000003
     Generating pointlists ...
     new r_m :   0.0831 (alat units)  1.5525 (a.u.) for type    1
     new r_m :   0.0928 (alat units)  1.7346 (a.u.) for type    2
     new r_m :   0.0615 (alat units)  1.1494 (a.u.) for type    3
     new r_m :   0.0615 (alat units)  1.1494 (a.u.) for type    4

     Initial potential from superposition of free atoms

     starting charge  215.97252, renormalised to  216.00000
     Starting wfcs are  152 randomized atomic wfcs
     Checking if some PAW data can be deallocated... 
       PAW data deallocated on   10 nodes for type:  1
       PAW data deallocated on    4 nodes for type:  3

     total cpu time spent up to now is     1628.0 secs

     Self-consistent Calculation

     iteration #  1     ecut=   100.00 Ry     beta= 0.40
     Davidson diagonalization with overlap
     ethr =  1.00E-02,  avg # of iterations =  3.9

     total cpu time spent up to now is     6358.8 secs

     total energy              =   -2380.43660002 Ry
     estimated scf accuracy    <       5.79235067 Ry

     total magnetization       =    16.00 Bohr mag/cell
     absolute magnetization    =    16.00 Bohr mag/cell

     iteration #  2     ecut=   100.00 Ry     beta= 0.40
     Davidson diagonalization with overlap
     ethr =  2.68E-03,  avg # of iterations =  2.0

     negative rho (up, down):  0.000E+00 7.362E-05

     total cpu time spent up to now is    10665.1 secs

     total energy              =   -2381.74590764 Ry
     estimated scf accuracy    <       0.44740993 Ry

     total magnetization       =    16.00 Bohr mag/cell
     absolute magnetization    =    16.01 Bohr mag/cell

     iteration #  3     ecut=   100.00 Ry     beta= 0.40
     Davidson diagonalization with overlap
     ethr =  2.07E-04,  avg # of iterations =  8.9

     negative rho (up, down):  0.000E+00 8.310E-05

     total cpu time spent up to now is    15863.1 secs

     total energy              =   -2381.73861837 Ry
     estimated scf accuracy    <       3.43290696 Ry

     total magnetization       =    15.93 Bohr mag/cell
     absolute magnetization    =    15.98 Bohr mag/cell

     iteration #  4     ecut=   100.00 Ry     beta= 0.40
     Davidson diagonalization with overlap
     ethr =  2.07E-04,  avg # of iterations =  2.0

     negative rho (up, down):  0.000E+00 2.642E-04

     total cpu time spent up to now is    19637.4 secs

     total energy              =   -2381.80021691 Ry
     estimated scf accuracy    <       1.44984698 Ry

     total magnetization       =    16.00 Bohr mag/cell
     absolute magnetization    =    16.06 Bohr mag/cell

     iteration #  5     ecut=   100.00 Ry     beta= 0.40
     Davidson diagonalization with overlap
     ethr =  2.07E-04,  avg # of iterations =  1.5

     negative rho (up, down):  0.000E+00 4.964E-04

     total cpu time spent up to now is    23204.6 secs

     total energy              =   -2381.79588456 Ry
     estimated scf accuracy    <       1.82897739 Ry

     total magnetization       =    16.00 Bohr mag/cell
     absolute magnetization    =    16.06 Bohr mag/cell

     iteration #  6     ecut=   100.00 Ry     beta= 0.40
     Davidson diagonalization with overlap
     ethr =  2.07E-04,  avg # of iterations =  2.0

     negative rho (up, down):  0.000E+00 5.284E-04

     total cpu time spent up to now is    26829.7 secs

     total energy              =   -2381.85622776 Ry
     estimated scf accuracy    <       1.91392392 Ry

     total magnetization       =    16.00 Bohr mag/cell
     absolute magnetization    =    16.08 Bohr mag/cell

     iteration #  7     ecut=   100.00 Ry     beta= 0.40
     Davidson diagonalization with overlap
     ethr =  2.07E-04,  avg # of iterations =  1.0

     negative rho (up, down):  0.000E+00 5.352E-04

     total cpu time spent up to now is    30307.3 secs

     total energy              =   -2381.90389067 Ry
     estimated scf accuracy    <       0.13703614 Ry

     total magnetization       =    16.00 Bohr mag/cell
     absolute magnetization    =    16.06 Bohr mag/cell

     iteration #  8     ecut=   100.00 Ry     beta= 0.40
     Davidson diagonalization with overlap
     ethr =  6.34E-05,  avg # of iterations =  1.0

     negative rho (up, down):  0.000E+00 5.336E-04

     total cpu time spent up to now is    33782.7 secs

     total energy              =   -2381.90786058 Ry
     estimated scf accuracy    <       0.35590233 Ry

     total magnetization       =    16.00 Bohr mag/cell
     absolute magnetization    =    16.07 Bohr mag/cell

     iteration #  9     ecut=   100.00 Ry     beta= 0.40
     Davidson diagonalization with overlap
     ethr =  6.34E-05,  avg # of iterations =  1.0

     negative rho (up, down):  0.000E+00 5.314E-04

     total cpu time spent up to now is    37251.9 secs

     total energy              =   -2381.90009924 Ry
     estimated scf accuracy    <       0.32710489 Ry

     total magnetization       =    16.00 Bohr mag/cell
     absolute magnetization    =    16.07 Bohr mag/cell

     iteration # 10     ecut=   100.00 Ry     beta= 0.40
     Davidson diagonalization with overlap
     ethr =  6.34E-05,  avg # of iterations =  1.0

     negative rho (up, down):  0.000E+00 5.239E-04

     total cpu time spent up to now is    40748.7 secs

     total energy              =   -2381.90605450 Ry
     estimated scf accuracy    <       0.03455813 Ry

     total magnetization       =    16.00 Bohr mag/cell
     absolute magnetization    =    16.07 Bohr mag/cell

     iteration # 11     ecut=   100.00 Ry     beta= 0.40
     Davidson diagonalization with overlap
     ethr =  1.60E-05,  avg # of iterations =  1.9

     negative rho (up, down):  0.000E+00 5.229E-04

     total cpu time spent up to now is    44335.8 secs

     total energy              =   -2381.90677284 Ry
     estimated scf accuracy    <       0.04050221 Ry

     total magnetization       =    16.00 Bohr mag/cell
     absolute magnetization    =    16.07 Bohr mag/cell

     iteration # 12     ecut=   100.00 Ry     beta= 0.40
     Davidson diagonalization with overlap
     ethr =  1.60E-05,  avg # of iterations =  1.1

     negative rho (up, down):  0.000E+00 5.173E-04

     total cpu time spent up to now is    47821.4 secs

     total energy              =   -2381.90764477 Ry
     estimated scf accuracy    <       0.03518445 Ry

     total magnetization       =    16.00 Bohr mag/cell
     absolute magnetization    =    16.07 Bohr mag/cell

     iteration # 13     ecut=   100.00 Ry     beta= 0.40
     Davidson diagonalization with overlap
     ethr =  1.60E-05,  avg # of iterations =  1.0

     negative rho (up, down):  0.000E+00 5.042E-04

     total cpu time spent up to now is    51294.1 secs

     total energy              =   -2381.90909099 Ry
     estimated scf accuracy    <       0.04320060 Ry

     total magnetization       =    16.00 Bohr mag/cell
     absolute magnetization    =    16.07 Bohr mag/cell

     iteration # 14     ecut=   100.00 Ry     beta= 0.40
     Davidson diagonalization with overlap
     ethr =  1.60E-05,  avg # of iterations =  1.0

     negative rho (up, down):  0.000E+00 4.918E-04

     total cpu time spent up to now is    54762.4 secs

     total energy              =   -2381.91093513 Ry
     estimated scf accuracy    <       0.04192247 Ry

     total magnetization       =    16.00 Bohr mag/cell
     absolute magnetization    =    16.07 Bohr mag/cell

     iteration # 15     ecut=   100.00 Ry     beta= 0.40
     Davidson diagonalization with overlap
     ethr =  1.60E-05,  avg # of iterations =  1.0

     negative rho (up, down):  0.000E+00 3.905E-04

     total cpu time spent up to now is    58246.0 secs

     total energy              =   -2381.90606447 Ry
     estimated scf accuracy    <       0.03797765 Ry

     total magnetization       =    16.00 Bohr mag/cell
     absolute magnetization    =    16.07 Bohr mag/cell

     iteration # 16     ecut=   100.00 Ry     beta= 0.40
     Davidson diagonalization with overlap
     ethr =  1.60E-05,  avg # of iterations =  2.0

     negative rho (up, down):  0.000E+00 4.331E-04

     total cpu time spent up to now is    62202.7 secs

     total energy              =   -2381.91706657 Ry
     estimated scf accuracy    <       0.02879211 Ry

     total magnetization       =    16.00 Bohr mag/cell
     absolute magnetization    =    16.07 Bohr mag/cell

     iteration # 17     ecut=   100.00 Ry     beta= 0.40
     Davidson diagonalization with overlap
     ethr =  1.33E-05,  avg # of iterations =  1.0

     negative rho (up, down):  0.000E+00 4.401E-04

     total cpu time spent up to now is    65688.7 secs

     total energy              =   -2381.91728682 Ry
     estimated scf accuracy    <       0.01484335 Ry

     total magnetization       =    16.00 Bohr mag/cell
     absolute magnetization    =    16.07 Bohr mag/cell

     iteration # 18     ecut=   100.00 Ry     beta= 0.40
     Davidson diagonalization with overlap
     ethr =  6.87E-06,  avg # of iterations =  2.5

     negative rho (up, down):  0.000E+00 4.729E-04

     total cpu time spent up to now is    69289.5 secs

     total energy              =   -2381.91664182 Ry
     estimated scf accuracy    <       0.01272110 Ry

     total magnetization       =    16.00 Bohr mag/cell
     absolute magnetization    =    16.07 Bohr mag/cell

     iteration # 19     ecut=   100.00 Ry     beta= 0.40
     Davidson diagonalization with overlap
     ethr =  5.89E-06,  avg # of iterations =  2.0

     negative rho (up, down):  0.000E+00 4.582E-04

     total cpu time spent up to now is    72997.3 secs

     total energy              =   -2381.91762591 Ry
     estimated scf accuracy    <       0.01151453 Ry

     total magnetization       =    16.00 Bohr mag/cell
     absolute magnetization    =    16.07 Bohr mag/cell

     iteration # 20     ecut=   100.00 Ry     beta= 0.40
     Davidson diagonalization with overlap
     ethr =  5.33E-06,  avg # of iterations =  1.4

     negative rho (up, down):  0.000E+00 4.653E-04

     total cpu time spent up to now is    76543.4 secs

     total energy              =   -2381.91760838 Ry
     estimated scf accuracy    <       0.00885220 Ry

     total magnetization       =    16.00 Bohr mag/cell
     absolute magnetization    =    16.07 Bohr mag/cell

     iteration # 21     ecut=   100.00 Ry     beta= 0.40
     Davidson diagonalization with overlap
     c_bands:  1 eigenvalues not converged
     ethr =  4.10E-06,  avg # of iterations =  1.6

     negative rho (up, down):  0.000E+00 4.607E-04

     total cpu time spent up to now is    80082.3 secs

     total energy              =   -2381.91769640 Ry
     estimated scf accuracy    <       0.00088713 Ry

     total magnetization       =    16.00 Bohr mag/cell
     absolute magnetization    =    16.07 Bohr mag/cell

     iteration # 22     ecut=   100.00 Ry     beta= 0.40
     Davidson diagonalization with overlap
     c_bands:  1 eigenvalues not converged
     c_bands:  1 eigenvalues not converged
     c_bands:  1 eigenvalues not converged
     c_bands:  1 eigenvalues not converged
     c_bands:  1 eigenvalues not converged
     c_bands:  1 eigenvalues not converged
     c_bands:  1 eigenvalues not converged
     c_bands:  1 eigenvalues not converged
     c_bands:  1 eigenvalues not converged
     c_bands:  1 eigenvalues not converged
     c_bands:  2 eigenvalues not converged
     c_bands:  1 eigenvalues not converged
     c_bands:  1 eigenvalues not converged
     c_bands:  1 eigenvalues not converged
     c_bands:  1 eigenvalues not converged
     c_bands:  1 eigenvalues not converged
     ethr =  4.11E-07,  avg # of iterations =  8.3

     negative rho (up, down):  0.000E+00 4.609E-04

     total cpu time spent up to now is    84165.6 secs

     total energy              =   -2381.91775331 Ry
     estimated scf accuracy    <       0.00025519 Ry

     total magnetization       =    16.00 Bohr mag/cell
     absolute magnetization    =    16.07 Bohr mag/cell

     iteration # 23     ecut=   100.00 Ry     beta= 0.40
     Davidson diagonalization with overlap
     ethr =  1.18E-07,  avg # of iterations =  1.7

     negative rho (up, down):  0.000E+00 4.578E-04

     total cpu time spent up to now is    87728.1 secs

     total energy              =   -2381.91777894 Ry
     estimated scf accuracy    <       0.00004506 Ry

     total magnetization       =    16.00 Bohr mag/cell
     absolute magnetization    =    16.07 Bohr mag/cell

     iteration # 24     ecut=   100.00 Ry     beta= 0.40
     Davidson diagonalization with overlap
     c_bands:  1 eigenvalues not converged
     ethr =  2.09E-08,  avg # of iterations =  4.8

     negative rho (up, down):  0.000E+00 4.522E-04

     total cpu time spent up to now is    92300.9 secs

     total energy              =   -2381.91777952 Ry
     estimated scf accuracy    <       0.00015879 Ry

     total magnetization       =    16.00 Bohr mag/cell
     absolute magnetization    =    16.07 Bohr mag/cell

     iteration # 25     ecut=   100.00 Ry     beta= 0.40
     Davidson diagonalization with overlap
     ethr =  2.09E-08,  avg # of iterations =  2.3

     negative rho (up, down):  0.000E+00 4.499E-04

     total cpu time spent up to now is    96397.7 secs

     total energy              =   -2381.91781331 Ry
     estimated scf accuracy    <       0.00003302 Ry

     total magnetization       =    16.00 Bohr mag/cell
     absolute magnetization    =    16.07 Bohr mag/cell

     iteration # 26     ecut=   100.00 Ry     beta= 0.40
     Davidson diagonalization with overlap
     ethr =  1.53E-08,  avg # of iterations =  2.5

     negative rho (up, down):  0.000E+00 4.483E-04

     total cpu time spent up to now is   100622.0 secs

     total energy              =   -2381.91781206 Ry
     estimated scf accuracy    <       0.00004250 Ry

     total magnetization       =    16.00 Bohr mag/cell
     absolute magnetization    =    16.07 Bohr mag/cell

     iteration # 27     ecut=   100.00 Ry     beta= 0.40
     Davidson diagonalization with overlap
     ethr =  1.53E-08,  avg # of iterations =  2.8

     negative rho (up, down):  0.000E+00 4.495E-04

     total cpu time spent up to now is   104968.5 secs

     total energy              =   -2381.91786720 Ry
     estimated scf accuracy    <       0.00000910 Ry

     total magnetization       =    16.00 Bohr mag/cell
     absolute magnetization    =    16.06 Bohr mag/cell

     iteration # 28     ecut=   100.00 Ry     beta= 0.40
     Davidson diagonalization with overlap
     ethr =  4.21E-09,  avg # of iterations =  3.8

     negative rho (up, down):  0.000E+00 4.497E-04

     total cpu time spent up to now is   109490.5 secs

     total energy              =   -2381.91789060 Ry
     estimated scf accuracy    <       0.00000106 Ry

     total magnetization       =    16.00 Bohr mag/cell
     absolute magnetization    =    16.06 Bohr mag/cell

     iteration # 29     ecut=   100.00 Ry     beta= 0.40
     Davidson diagonalization with overlap
     c_bands:  1 eigenvalues not converged
     ethr =  4.90E-10,  avg # of iterations =  4.4

     negative rho (up, down):  0.000E+00 4.499E-04

     total cpu time spent up to now is   114704.1 secs

     total energy              =   -2381.91789871 Ry
     estimated scf accuracy    <       0.00000020 Ry

     total magnetization       =    16.00 Bohr mag/cell
     absolute magnetization    =    16.06 Bohr mag/cell

     iteration # 30     ecut=   100.00 Ry     beta= 0.40
     Davidson diagonalization with overlap
     c_bands:  1 eigenvalues not converged
     ethr =  9.05E-11,  avg # of iterations =  2.8

     negative rho (up, down):  0.000E+00 4.499E-04

     total cpu time spent up to now is   118606.0 secs

     total energy              =   -2381.91790015 Ry
     estimated scf accuracy    <       0.00000023 Ry

     total magnetization       =    16.00 Bohr mag/cell
     absolute magnetization    =    16.06 Bohr mag/cell

     iteration # 31     ecut=   100.00 Ry     beta= 0.40
     Davidson diagonalization with overlap
     ethr =  9.05E-11,  avg # of iterations =  1.9

     negative rho (up, down):  0.000E+00 4.498E-04

     total cpu time spent up to now is   122222.7 secs

     total energy              =   -2381.91790067 Ry
     estimated scf accuracy    <       0.00000008 Ry

     total magnetization       =    16.00 Bohr mag/cell
     absolute magnetization    =    16.06 Bohr mag/cell

     iteration # 32     ecut=   100.00 Ry     beta= 0.40
     Davidson diagonalization with overlap
     ethr =  3.48E-11,  avg # of iterations =  2.0

     negative rho (up, down):  0.000E+00 4.498E-04

     total cpu time spent up to now is   126129.4 secs

     total energy              =   -2381.91790089 Ry
     estimated scf accuracy    <       0.00000005 Ry

     total magnetization       =    16.00 Bohr mag/cell
     absolute magnetization    =    16.06 Bohr mag/cell

     iteration # 33     ecut=   100.00 Ry     beta= 0.40
     Davidson diagonalization with overlap
     ethr =  2.35E-11,  avg # of iterations =  2.3

     negative rho (up, down):  0.000E+00 4.498E-04

     total cpu time spent up to now is   130051.9 secs

     total energy              =   -2381.91790086 Ry
     estimated scf accuracy    <       0.00000002 Ry

     total magnetization       =    16.00 Bohr mag/cell
     absolute magnetization    =    16.06 Bohr mag/cell

     iteration # 34     ecut=   100.00 Ry     beta= 0.40
     Davidson diagonalization with overlap
     ethr =  1.08E-11,  avg # of iterations =  4.0

     negative rho (up, down):  0.000E+00 4.498E-04

     total cpu time spent up to now is   134721.9 secs

     total energy              =   -2381.91790101 Ry
     estimated scf accuracy    <       0.00000003 Ry

     total magnetization       =    16.00 Bohr mag/cell
     absolute magnetization    =    16.06 Bohr mag/cell

     iteration # 35     ecut=   100.00 Ry     beta= 0.40
     Davidson diagonalization with overlap
     ethr =  1.08E-11,  avg # of iterations =  2.0

     negative rho (up, down):  0.000E+00 4.498E-04

     total cpu time spent up to now is   138702.8 secs

     total energy              =   -2381.91790105 Ry
     estimated scf accuracy    <          1.8E-09 Ry

     total magnetization       =    16.00 Bohr mag/cell
     absolute magnetization    =    16.06 Bohr mag/cell

     iteration # 36     ecut=   100.00 Ry     beta= 0.40
     Davidson diagonalization with overlap
     ethr =  8.14E-13,  avg # of iterations =  4.2

     negative rho (up, down):  0.000E+00 4.498E-04

     total cpu time spent up to now is   143807.3 secs

     total energy              =   -2381.91790106 Ry
     estimated scf accuracy    <          6.0E-10 Ry

     total magnetization       =    16.00 Bohr mag/cell
     absolute magnetization    =    16.06 Bohr mag/cell

     iteration # 37     ecut=   100.00 Ry     beta= 0.40
     Davidson diagonalization with overlap
     ethr =  2.75E-13,  avg # of iterations =  2.3

     negative rho (up, down):  0.000E+00 4.498E-04

     total cpu time spent up to now is   147829.0 secs

     total energy              =   -2381.91790107 Ry
     estimated scf accuracy    <          5.6E-10 Ry

     total magnetization       =    16.00 Bohr mag/cell
     absolute magnetization    =    16.06 Bohr mag/cell

     iteration # 38     ecut=   100.00 Ry     beta= 0.40
     Davidson diagonalization with overlap
     ethr =  2.58E-13,  avg # of iterations =  2.3

     negative rho (up, down):  0.000E+00 4.498E-04

     Magnetic moment per site:
     atom:    1    charge:    7.9343    magn:    0.0001    constr:    0.0000
     atom:    2    charge:    7.9343    magn:    0.0001    constr:    0.0000
     atom:    3    charge:    7.9343    magn:    0.0001    constr:    0.0000
     atom:    4    charge:    7.9343    magn:    0.0001    constr:    0.0000
     atom:    5    charge:   13.2072    magn:    3.2759    constr:    0.0000
     atom:    6    charge:   13.2072    magn:    3.2759    constr:    0.0000
     atom:    7    charge:   13.2072    magn:    3.2759    constr:    0.0000
     atom:    8    charge:   13.2073    magn:    3.2759    constr:    0.0000
     atom:    9    charge:    0.7985    magn:    0.0065    constr:    0.0000
     atom:   10    charge:    0.7985    magn:    0.0065    constr:    0.0000
     atom:   11    charge:    0.7985    magn:    0.0065    constr:    0.0000
     atom:   12    charge:    0.7985    magn:    0.0065    constr:    0.0000
     atom:   13    charge:    4.0685    magn:    0.0344    constr:    0.0000
     atom:   14    charge:    4.0685    magn:    0.0343    constr:    0.0000
     atom:   15    charge:    4.0685    magn:    0.0344    constr:    0.0000
     atom:   16    charge:    4.0685    magn:    0.0343    constr:    0.0000
     atom:   17    charge:    4.1210    magn:    0.0463    constr:    0.0000
     atom:   18    charge:    4.1211    magn:    0.0463    constr:    0.0000
     atom:   19    charge:    4.1210    magn:    0.0463    constr:    0.0000
     atom:   20    charge:    4.1211    magn:    0.0463    constr:    0.0000
     atom:   21    charge:    4.1100    magn:    0.0786    constr:    0.0000
     atom:   22    charge:    4.1100    magn:    0.0786    constr:    0.0000
     atom:   23    charge:    4.1100    magn:    0.0786    constr:    0.0000
     atom:   24    charge:    4.1100    magn:    0.0786    constr:    0.0000
     atom:   25    charge:    4.1100    magn:    0.0786    constr:    0.0000
     atom:   26    charge:    4.1100    magn:    0.0786    constr:    0.0000
     atom:   27    charge:    4.1100    magn:    0.0786    constr:    0.0000
     atom:   28    charge:    4.1100    magn:    0.0786    constr:    0.0000

     total cpu time spent up to now is   151758.4 secs

     End of self-consistent calculation

 ------ SPIN UP ------------


          k = 0.0000 0.0000 0.0000 ( 32925 PWs)   bands (ev):

   -79.3563 -79.3560 -79.3547 -79.3543 -46.2886 -46.2872 -46.2871 -46.2857
   -45.2186 -45.2183 -45.2171 -45.2165 -44.7630 -44.7620 -44.7614 -44.7604
   -41.6320 -41.6319 -41.6168 -41.6167 -14.3828 -14.3090 -14.2669 -14.0606
   -13.7739 -13.7657 -13.7018 -13.6898 -13.6867 -13.6804 -13.5949 -13.5942
   -13.5574 -13.5572 -13.3420 -13.2826 -11.2153 -11.1243 -11.1156 -11.0833
   -11.0662 -11.0421 -11.0403 -10.9517 -10.7588 -10.6848 -10.6816 -10.6528
    -0.9796  -0.4788  -0.2923  -0.2492   0.2735   0.8274   0.8520   1.0542
     1.1036   1.2965   1.6787   1.6976   1.7012   1.7548   1.7652   2.1512
     2.8305   3.0324   3.3849   3.4336   3.5300   3.7600   3.8083   3.8896
     3.9033   3.9178   4.0060   4.3292   4.3493   4.4335   4.5909   4.6016
     4.6060   4.6344   4.6801   4.8205   5.0362   5.0418   5.2727   5.3479
     5.4373   5.5421   5.6927   5.9634   6.0667   6.2482   6.3617   6.6816
     7.0510   7.0695   7.1165   7.3841   7.4144   7.4918   7.5027   7.5053
     7.8008   8.0037   8.2153   8.2217   8.2929   8.3010   8.4303   8.7612
     8.7953   8.9562   9.0825   9.1442  12.3794  14.4391  14.4453  15.0665
    15.5175  15.6895  16.0348  16.7937  16.9105  17.2049  17.3899  17.4056
    17.4361  17.4976

     occupation numbers 
     1.0000   1.0000   1.0000   1.0000   1.0000   1.0000   1.0000   1.0000
     1.0000   1.0000   1.0000   1.0000   1.0000   1.0000   1.0000   1.0000
     1.0000   1.0000   1.0000   1.0000   1.0000   1.0000   1.0000   1.0000
     1.0000   1.0000   1.0000   1.0000   1.0000   1.0000   1.0000   1.0000
     1.0000   1.0000   1.0000   1.0000   1.0000   1.0000   1.0000   1.0000
     1.0000   1.0000   1.0000   1.0000   1.0000   1.0000   1.0000   1.0000
     1.0000   1.0000   1.0000   1.0000   1.0000   1.0000   1.0000   1.0000
     1.0000   1.0000   1.0000   1.0000   1.0000   1.0000   1.0000   1.0000
     1.0000   1.0000   1.0000   1.0000   1.0000   1.0000   1.0000   1.0000
     1.0000   1.0000   1.0000   1.0000   1.0000   1.0000   1.0000   1.0000
     1.0000   1.0000   1.0000   1.0000   1.0000   1.0000   1.0000   1.0000
     1.0000   1.0000   1.0000   1.0000   1.0000   1.0000   1.0000   1.0000
     1.0000   1.0000   1.0000   1.0000   1.0000   1.0000   1.0000   1.0000
     1.0000   1.0000   1.0000   1.0000   1.0000   1.0000   1.0000   1.0000
     1.0000   1.0000   1.0000   1.0000   0.0000   0.0000   0.0000   0.0000
     0.0000   0.0000   0.0000   0.0000   0.0000   0.0000   0.0000   0.0000
     0.0000   0.0000

          k = 0.0000 0.0000 0.2220 ( 32901 PWs)   bands (ev):

   -79.3563 -79.3560 -79.3547 -79.3543 -46.2886 -46.2873 -46.2870 -46.2857
   -45.2186 -45.2183 -45.2171 -45.2165 -44.7630 -44.7621 -44.7614 -44.7604
   -41.6320 -41.6319 -41.6168 -41.6167 -14.3962 -14.3159 -14.2447 -14.0713
   -13.7711 -13.7529 -13.6868 -13.6814 -13.6809 -13.6697 -13.5950 -13.5943
   -13.5576 -13.5573 -13.3542 -13.2985 -11.2071 -11.1360 -11.1127 -11.0943
   -11.0589 -11.0446 -11.0422 -10.9590 -10.7545 -10.7010 -10.6948 -10.6553
    -0.9520  -0.4783  -0.2961  -0.2314   0.3421   0.8435   0.9107   1.1075
     1.1079   1.3151   1.6787   1.7058   1.7124   1.7181   1.7455   2.1344
     2.8368   3.0234   3.3836   3.3951   3.5486   3.6667   3.8132   3.8173
     3.8390   3.8789   4.0690   4.2864   4.3462   4.3632   4.5161   4.5611
     4.5784   4.5932   4.8345   4.9295   5.0489   5.1090   5.2166   5.3410
     5.4101   5.5832   5.7198   5.9577   6.0921   6.2770   6.3483   6.6553
     7.0387   7.0747   7.1018   7.3795   7.4036   7.4378   7.4692   7.5044
     7.8351   8.0234   8.2336   8.2548   8.3152   8.3355   8.4279   8.7347
     8.7742   8.9184   9.0952   9.1372  12.5301  14.4663  14.5555  15.0552
    15.4859  15.7026  16.1901  16.4729  16.8954  17.0047  17.1332  17.2894
    17.5245  17.6129

     occupation numbers 
     1.0000   1.0000   1.0000   1.0000   1.0000   1.0000   1.0000   1.0000
     1.0000   1.0000   1.0000   1.0000   1.0000   1.0000   1.0000   1.0000
     1.0000   1.0000   1.0000   1.0000   1.0000   1.0000   1.0000   1.0000
     1.0000   1.0000   1.0000   1.0000   1.0000   1.0000   1.0000   1.0000
     1.0000   1.0000   1.0000   1.0000   1.0000   1.0000   1.0000   1.0000
     1.0000   1.0000   1.0000   1.0000   1.0000   1.0000   1.0000   1.0000
     1.0000   1.0000   1.0000   1.0000   1.0000   1.0000   1.0000   1.0000
     1.0000   1.0000   1.0000   1.0000   1.0000   1.0000   1.0000   1.0000
     1.0000   1.0000   1.0000   1.0000   1.0000   1.0000   1.0000   1.0000
     1.0000   1.0000   1.0000   1.0000   1.0000   1.0000   1.0000   1.0000
     1.0000   1.0000   1.0000   1.0000   1.0000   1.0000   1.0000   1.0000
     1.0000   1.0000   1.0000   1.0000   1.0000   1.0000   1.0000   1.0000
     1.0000   1.0000   1.0000   1.0000   1.0000   1.0000   1.0000   1.0000
     1.0000   1.0000   1.0000   1.0000   1.0000   1.0000   1.0000   1.0000
     1.0000   1.0000   1.0000   1.0000   0.0000   0.0000   0.0000   0.0000
     0.0000   0.0000   0.0000   0.0000   0.0000   0.0000   0.0000   0.0000
     0.0000   0.0000

          k = 0.0000 0.0000 0.4441 ( 32914 PWs)   bands (ev):

   -79.3563 -79.3560 -79.3547 -79.3543 -46.2885 -46.2874 -46.2869 -46.2858
   -45.2186 -45.2183 -45.2170 -45.2165 -44.7629 -44.7621 -44.7613 -44.7605
   -41.6320 -41.6319 -41.6168 -41.6167 -14.4253 -14.3471 -14.1800 -14.0596
   -13.7701 -13.7442 -13.6868 -13.6820 -13.6421 -13.6364 -13.5954 -13.5948
   -13.5579 -13.5576 -13.3750 -13.3256 -11.1840 -11.1598 -11.1204 -11.1044
   -11.0522 -11.0484 -11.0418 -10.9802 -10.7742 -10.7664 -10.6984 -10.6429
    -0.8736  -0.4698  -0.3150  -0.2235   0.5605   0.9086   1.0534   1.1259
     1.2468   1.3629   1.6200   1.6788   1.6860   1.7454   1.7704   2.0793
     2.8497   2.9979   3.3010   3.3785   3.4809   3.5841   3.6551   3.7102
     3.8138   3.8184   4.0473   4.2451   4.2667   4.3051   4.3174   4.4452
     4.5244   4.5909   5.0412   5.0462   5.1084   5.1935   5.2639   5.3535
     5.3998   5.6452   5.7443   5.9386   6.1547   6.3011   6.3622   6.6058
     7.0246   7.0643   7.0834   7.3159   7.3320   7.3784   7.4069   7.5248
     7.9302   8.0863   8.2663   8.3270   8.3478   8.3934   8.4612   8.6585
     8.7108   8.8460   9.1071   9.1205  12.9295  14.5371  14.8473  15.0074
    15.5232  15.7227  16.0468  16.4666  16.7547  16.8203  16.8222  16.8467
    17.3588  17.5143

     occupation numbers 
     1.0000   1.0000   1.0000   1.0000   1.0000   1.0000   1.0000   1.0000
     1.0000   1.0000   1.0000   1.0000   1.0000   1.0000   1.0000   1.0000
     1.0000   1.0000   1.0000   1.0000   1.0000   1.0000   1.0000   1.0000
     1.0000   1.0000   1.0000   1.0000   1.0000   1.0000   1.0000   1.0000
     1.0000   1.0000   1.0000   1.0000   1.0000   1.0000   1.0000   1.0000
     1.0000   1.0000   1.0000   1.0000   1.0000   1.0000   1.0000   1.0000
     1.0000   1.0000   1.0000   1.0000   1.0000   1.0000   1.0000   1.0000
     1.0000   1.0000   1.0000   1.0000   1.0000   1.0000   1.0000   1.0000
     1.0000   1.0000   1.0000   1.0000   1.0000   1.0000   1.0000   1.0000
     1.0000   1.0000   1.0000   1.0000   1.0000   1.0000   1.0000   1.0000
     1.0000   1.0000   1.0000   1.0000   1.0000   1.0000   1.0000   1.0000
     1.0000   1.0000   1.0000   1.0000   1.0000   1.0000   1.0000   1.0000
     1.0000   1.0000   1.0000   1.0000   1.0000   1.0000   1.0000   1.0000
     1.0000   1.0000   1.0000   1.0000   1.0000   1.0000   1.0000   1.0000
     1.0000   1.0000   1.0000   1.0000   0.0000   0.0000   0.0000   0.0000
     0.0000   0.0000   0.0000   0.0000   0.0000   0.0000   0.0000   0.0000
     0.0000   0.0000

          k = 0.0000 0.0000 0.6661 ( 32938 PWs)   bands (ev):

   -79.3563 -79.3560 -79.3547 -79.3543 -46.2883 -46.2876 -46.2867 -46.2860
   -45.2185 -45.2183 -45.2170 -45.2165 -44.7628 -44.7622 -44.7612 -44.7606
   -41.6319 -41.6319 -41.6168 -41.6167 -14.4496 -14.3958 -14.0798 -13.9989
   -13.7792 -13.7536 -13.6867 -13.6836 -13.6594 -13.6429 -13.5957 -13.5954
   -13.5582 -13.5580 -13.3631 -13.3217 -11.1795 -11.1502 -11.1494 -11.0914
   -11.0591 -11.0579 -11.0228 -11.0121 -10.8497 -10.8283 -10.6727 -10.6311
    -0.7560  -0.4431  -0.3717  -0.2647   0.8974   1.0379   1.1685   1.1903
     1.4064   1.4173   1.4888   1.5880   1.7160   1.8494   1.8910   1.9861
     2.8416   2.9817   3.1709   3.2515   3.3831   3.4440   3.5784   3.6592
     3.6698   3.7477   3.8445   4.1942   4.2153   4.2283   4.3123   4.3220
     4.5228   4.6174   4.9217   4.9626   5.3076   5.3673   5.4080   5.4517
     5.4938   5.6942   5.7703   5.8985   6.1469   6.2133   6.4831   6.6171
     7.0218   7.0315   7.1012   7.2036   7.2400   7.2804   7.4309   7.5272
     8.0677   8.1932   8.3089   8.3645   8.3801   8.4062   8.5402   8.5611
     8.6086   8.7774   9.1044   9.1070  13.4632  14.6630  14.8263  15.2478
    15.5173  15.6473  16.0137  16.4622  16.4854  16.6073  16.7007  16.7624
    17.0892  17.4594

     occupation numbers 
     1.0000   1.0000   1.0000   1.0000   1.0000   1.0000   1.0000   1.0000
     1.0000   1.0000   1.0000   1.0000   1.0000   1.0000   1.0000   1.0000
     1.0000   1.0000   1.0000   1.0000   1.0000   1.0000   1.0000   1.0000
     1.0000   1.0000   1.0000   1.0000   1.0000   1.0000   1.0000   1.0000
     1.0000   1.0000   1.0000   1.0000   1.0000   1.0000   1.0000   1.0000
     1.0000   1.0000   1.0000   1.0000   1.0000   1.0000   1.0000   1.0000
     1.0000   1.0000   1.0000   1.0000   1.0000   1.0000   1.0000   1.0000
     1.0000   1.0000   1.0000   1.0000   1.0000   1.0000   1.0000   1.0000
     1.0000   1.0000   1.0000   1.0000   1.0000   1.0000   1.0000   1.0000
     1.0000   1.0000   1.0000   1.0000   1.0000   1.0000   1.0000   1.0000
     1.0000   1.0000   1.0000   1.0000   1.0000   1.0000   1.0000   1.0000
     1.0000   1.0000   1.0000   1.0000   1.0000   1.0000   1.0000   1.0000
     1.0000   1.0000   1.0000   1.0000   1.0000   1.0000   1.0000   1.0000
     1.0000   1.0000   1.0000   1.0000   1.0000   1.0000   1.0000   1.0000
     1.0000   1.0000   1.0000   1.0000   0.0000   0.0000   0.0000   0.0000
     0.0000   0.0000   0.0000   0.0000   0.0000   0.0000   0.0000   0.0000
     0.0000   0.0000

          k = 0.0000 0.0000 0.8882 ( 32928 PWs)   bands (ev):

   -79.3562 -79.3560 -79.3547 -79.3543 -46.2881 -46.2877 -46.2865 -46.2862
   -45.2185 -45.2183 -45.2170 -45.2165 -44.7628 -44.7623 -44.7611 -44.7607
   -41.6319 -41.6319 -41.6168 -41.6167 -14.4551 -14.4363 -13.9599 -13.9176
   -13.8157 -13.8151 -13.6908 -13.6863 -13.6851 -13.6785 -13.5959 -13.5958
   -13.5583 -13.5582 -13.3245 -13.3078 -11.1852 -11.1743 -11.1096 -11.0770
   -11.0742 -11.0483 -11.0473 -11.0229 -10.8970 -10.8780 -10.6468 -10.6316
    -0.6158  -0.4772  -0.3958  -0.3326   1.1628   1.2372   1.2451   1.2471
     1.3559   1.4197   1.4790   1.5402   1.7799   1.8762   1.9960   2.0241
     2.8201   2.9384   3.0176   3.1111   3.2883   3.3303   3.4256   3.5045
     3.6827   3.7124   3.9162   4.0416   4.2080   4.2187   4.2560   4.2603
     4.6570   4.6840   4.7906   4.8184   5.4067   5.4403   5.4699   5.4939
     5.7471   5.7522   5.8315   5.8589   6.0282   6.0828   6.6027   6.6590
     7.0262   7.0653   7.1215   7.1216   7.1365   7.1965   7.4675   7.5047
     8.2280   8.3308   8.3433   8.3598   8.3915   8.4043   8.4176   8.4765
     8.6496   8.7173   9.0982   9.1014  14.0191  14.5040  14.8645  15.1132
    15.7407  15.7662  16.0111  16.2058  16.4696  16.5871  16.6597  16.6609
    17.0108  17.2141

     occupation numbers 
     1.0000   1.0000   1.0000   1.0000   1.0000   1.0000   1.0000   1.0000
     1.0000   1.0000   1.0000   1.0000   1.0000   1.0000   1.0000   1.0000
     1.0000   1.0000   1.0000   1.0000   1.0000   1.0000   1.0000   1.0000
     1.0000   1.0000   1.0000   1.0000   1.0000   1.0000   1.0000   1.0000
     1.0000   1.0000   1.0000   1.0000   1.0000   1.0000   1.0000   1.0000
     1.0000   1.0000   1.0000   1.0000   1.0000   1.0000   1.0000   1.0000
     1.0000   1.0000   1.0000   1.0000   1.0000   1.0000   1.0000   1.0000
     1.0000   1.0000   1.0000   1.0000   1.0000   1.0000   1.0000   1.0000
     1.0000   1.0000   1.0000   1.0000   1.0000   1.0000   1.0000   1.0000
     1.0000   1.0000   1.0000   1.0000   1.0000   1.0000   1.0000   1.0000
     1.0000   1.0000   1.0000   1.0000   1.0000   1.0000   1.0000   1.0000
     1.0000   1.0000   1.0000   1.0000   1.0000   1.0000   1.0000   1.0000
     1.0000   1.0000   1.0000   1.0000   1.0000   1.0000   1.0000   1.0000
     1.0000   1.0000   1.0000   1.0000   1.0000   1.0000   1.0000   1.0000
     1.0000   1.0000   1.0000   1.0000   0.0000   0.0000   0.0000   0.0000
     0.0000   0.0000   0.0000   0.0000   0.0000   0.0000   0.0000   0.0000
     0.0000   0.0000

          k = 0.0000 0.2391 0.0000 ( 32913 PWs)   bands (ev):

   -79.3563 -79.3560 -79.3547 -79.3543 -46.2886 -46.2873 -46.2870 -46.2857
   -45.2186 -45.2183 -45.2171 -45.2165 -44.7630 -44.7621 -44.7614 -44.7605
   -41.6312 -41.6311 -41.6175 -41.6175 -14.3697 -14.3037 -14.2644 -14.0839
   -13.7663 -13.7585 -13.6953 -13.6846 -13.6736 -13.6726 -13.5960 -13.5905
   -13.5643 -13.5635 -13.3503 -13.3039 -11.2172 -11.1783 -11.1602 -11.0655
   -11.0519 -11.0302 -10.9971 -10.9670 -10.7453 -10.6833 -10.6816 -10.6564
    -0.9430  -0.4484  -0.3242  -0.2356   0.3266   0.8402   0.8710   1.0206
     1.1760   1.3025   1.5906   1.6807   1.7692   1.7882   1.8024   2.1221
     2.8526   3.0294   3.3257   3.4345   3.4346   3.6517   3.8063   3.8782
     3.9259   3.9274   4.0619   4.2589   4.3003   4.3440   4.5909   4.6056
     4.6771   4.6829   4.6858   4.8931   5.1015   5.1249   5.1432   5.3902
     5.4302   5.5530   5.6666   5.9777   6.0155   6.1898   6.3163   6.6602
     7.0261   7.0311   7.1332   7.2784   7.3645   7.4726   7.5620   7.6868
     7.7583   7.9607   8.2208   8.2335   8.2991   8.3152   8.5193   8.6024
     8.6092   9.0873   9.1613   9.1831  12.5397  14.5232  14.5382  15.0203
    15.6185  15.7617  16.0081  16.7373  16.8948  17.1063  17.1937  17.4669
    17.4718  17.6303

     occupation numbers 
     1.0000   1.0000   1.0000   1.0000   1.0000   1.0000   1.0000   1.0000
     1.0000   1.0000   1.0000   1.0000   1.0000   1.0000   1.0000   1.0000
     1.0000   1.0000   1.0000   1.0000   1.0000   1.0000   1.0000   1.0000
     1.0000   1.0000   1.0000   1.0000   1.0000   1.0000   1.0000   1.0000
     1.0000   1.0000   1.0000   1.0000   1.0000   1.0000   1.0000   1.0000
     1.0000   1.0000   1.0000   1.0000   1.0000   1.0000   1.0000   1.0000
     1.0000   1.0000   1.0000   1.0000   1.0000   1.0000   1.0000   1.0000
     1.0000   1.0000   1.0000   1.0000   1.0000   1.0000   1.0000   1.0000
     1.0000   1.0000   1.0000   1.0000   1.0000   1.0000   1.0000   1.0000
     1.0000   1.0000   1.0000   1.0000   1.0000   1.0000   1.0000   1.0000
     1.0000   1.0000   1.0000   1.0000   1.0000   1.0000   1.0000   1.0000
     1.0000   1.0000   1.0000   1.0000   1.0000   1.0000   1.0000   1.0000
     1.0000   1.0000   1.0000   1.0000   1.0000   1.0000   1.0000   1.0000
     1.0000   1.0000   1.0000   1.0000   1.0000   1.0000   1.0000   1.0000
     1.0000   1.0000   1.0000   1.0000   0.0000   0.0000   0.0000   0.0000
     0.0000   0.0000   0.0000   0.0000   0.0000   0.0000   0.0000   0.0000
     0.0000   0.0000

          k = 0.0000 0.2391 0.2220 ( 32922 PWs)   bands (ev):

   -79.3563 -79.3560 -79.3547 -79.3543 -46.2885 -46.2873 -46.2870 -46.2858
   -45.2186 -45.2183 -45.2171 -45.2165 -44.7630 -44.7621 -44.7613 -44.7605
   -41.6312 -41.6311 -41.6175 -41.6175 -14.3819 -14.3092 -14.2433 -14.0906
   -13.7647 -13.7522 -13.6893 -13.6863 -13.6630 -13.6553 -13.5932 -13.5856
   -13.5656 -13.5650 -13.3606 -13.3166 -11.2166 -11.1824 -11.1520 -11.0609
   -11.0606 -11.0329 -11.0108 -10.9671 -10.7436 -10.6970 -10.6935 -10.6607
    -0.9155  -0.4474  -0.3176  -0.2242   0.3910   0.8567   0.9278   1.0665
     1.1863   1.3202   1.6080   1.6872   1.7396   1.7720   1.7915   2.1028
     2.8607   3.0107   3.3173   3.4048   3.4408   3.5971   3.7348   3.8179
     3.8645   4.0047   4.0695   4.2053   4.3000   4.3254   4.5276   4.5617
     4.5864   4.7023   4.8031   4.9755   5.1082   5.1144   5.1717   5.3750
     5.4121   5.5872   5.6908   5.9700   6.0415   6.2157   6.3032   6.6335
     7.0173   7.0243   7.1359   7.2842   7.3686   7.4579   7.5123   7.6521
     7.7845   7.9740   8.2327   8.2706   8.3143   8.3485   8.5279   8.5716
     8.5928   9.0528   9.1723   9.1774  12.6851  14.5518  14.6493  15.0346
    15.5711  15.7650  16.1790  16.3981  16.8744  16.9445  17.1949  17.3788
    17.4860  17.6077

     occupation numbers 
     1.0000   1.0000   1.0000   1.0000   1.0000   1.0000   1.0000   1.0000
     1.0000   1.0000   1.0000   1.0000   1.0000   1.0000   1.0000   1.0000
     1.0000   1.0000   1.0000   1.0000   1.0000   1.0000   1.0000   1.0000
     1.0000   1.0000   1.0000   1.0000   1.0000   1.0000   1.0000   1.0000
     1.0000   1.0000   1.0000   1.0000   1.0000   1.0000   1.0000   1.0000
     1.0000   1.0000   1.0000   1.0000   1.0000   1.0000   1.0000   1.0000
     1.0000   1.0000   1.0000   1.0000   1.0000   1.0000   1.0000   1.0000
     1.0000   1.0000   1.0000   1.0000   1.0000   1.0000   1.0000   1.0000
     1.0000   1.0000   1.0000   1.0000   1.0000   1.0000   1.0000   1.0000
     1.0000   1.0000   1.0000   1.0000   1.0000   1.0000   1.0000   1.0000
     1.0000   1.0000   1.0000   1.0000   1.0000   1.0000   1.0000   1.0000
     1.0000   1.0000   1.0000   1.0000   1.0000   1.0000   1.0000   1.0000
     1.0000   1.0000   1.0000   1.0000   1.0000   1.0000   1.0000   1.0000
     1.0000   1.0000   1.0000   1.0000   1.0000   1.0000   1.0000   1.0000
     1.0000   1.0000   1.0000   1.0000   0.0000   0.0000   0.0000   0.0000
     0.0000   0.0000   0.0000   0.0000   0.0000   0.0000   0.0000   0.0000
     0.0000   0.0000

          k = 0.0000 0.2391 0.4441 ( 32913 PWs)   bands (ev):

   -79.3563 -79.3560 -79.3547 -79.3543 -46.2884 -46.2874 -46.2869 -46.2859
   -45.2186 -45.2183 -45.2170 -45.2165 -44.7629 -44.7622 -44.7613 -44.7605
   -41.6312 -41.6311 -41.6175 -41.6175 -14.4083 -14.3362 -14.1829 -14.0771
   -13.7660 -13.7505 -13.6878 -13.6867 -13.6388 -13.6361 -13.5805 -13.5715
   -13.5695 -13.5681 -13.3775 -13.3366 -11.2136 -11.1922 -11.1310 -11.0791
   -11.0551 -11.0413 -11.0328 -10.9753 -10.7677 -10.7559 -10.6956 -10.6517
    -0.8377  -0.4389  -0.3139  -0.2264   0.5993   0.9193   1.0674   1.1444
     1.2626   1.3647   1.6479   1.6640   1.6853   1.7476   1.8018   2.0468
     2.8689   2.9705   3.2584   3.3263   3.4463   3.4989   3.5719   3.7305
     3.8466   3.9572   4.0541   4.1478   4.2235   4.3081   4.3776   4.4167
     4.5135   4.6909   4.9760   4.9920   5.1672   5.1882   5.2943   5.3732
     5.4205   5.6467   5.7093   5.9493   6.1114   6.2521   6.2987   6.5730
     7.0029   7.0097   7.1448   7.2885   7.3803   7.4055   7.4159   7.5876
     7.8603   8.0161   8.2652   8.3366   8.3503   8.4001   8.4981   8.5333
     8.5735   8.9846   9.1644   9.1797  13.0723  14.6230  14.9405  15.0485
    15.6009  15.7611  15.9990  16.4733  16.7044  16.7775  16.9253  16.9423
    17.3225  17.5178

     occupation numbers 
     1.0000   1.0000   1.0000   1.0000   1.0000   1.0000   1.0000   1.0000
     1.0000   1.0000   1.0000   1.0000   1.0000   1.0000   1.0000   1.0000
     1.0000   1.0000   1.0000   1.0000   1.0000   1.0000   1.0000   1.0000
     1.0000   1.0000   1.0000   1.0000   1.0000   1.0000   1.0000   1.0000
     1.0000   1.0000   1.0000   1.0000   1.0000   1.0000   1.0000   1.0000
     1.0000   1.0000   1.0000   1.0000   1.0000   1.0000   1.0000   1.0000
     1.0000   1.0000   1.0000   1.0000   1.0000   1.0000   1.0000   1.0000
     1.0000   1.0000   1.0000   1.0000   1.0000   1.0000   1.0000   1.0000
     1.0000   1.0000   1.0000   1.0000   1.0000   1.0000   1.0000   1.0000
     1.0000   1.0000   1.0000   1.0000   1.0000   1.0000   1.0000   1.0000
     1.0000   1.0000   1.0000   1.0000   1.0000   1.0000   1.0000   1.0000
     1.0000   1.0000   1.0000   1.0000   1.0000   1.0000   1.0000   1.0000
     1.0000   1.0000   1.0000   1.0000   1.0000   1.0000   1.0000   1.0000
     1.0000   1.0000   1.0000   1.0000   1.0000   1.0000   1.0000   1.0000
     1.0000   1.0000   1.0000   1.0000   0.0000   0.0000   0.0000   0.0000
     0.0000   0.0000   0.0000   0.0000   0.0000   0.0000   0.0000   0.0000
     0.0000   0.0000

          k = 0.0000 0.2391 0.6661 ( 32939 PWs)   bands (ev):

   -79.3563 -79.3560 -79.3547 -79.3543 -46.2883 -46.2876 -46.2867 -46.2860
   -45.2185 -45.2183 -45.2170 -45.2165 -44.7628 -44.7623 -44.7612 -44.7606
   -41.6312 -41.6311 -41.6175 -41.6175 -14.4302 -14.3800 -14.0922 -14.0226
   -13.7791 -13.7683 -13.6894 -13.6865 -13.6456 -13.6388 -13.5847 -13.5838
   -13.5614 -13.5583 -13.3653 -13.3296 -11.2096 -11.2016 -11.1107 -11.0867
   -11.0769 -11.0484 -11.0287 -10.9934 -10.8295 -10.8189 -10.6753 -10.6429
    -0.7214  -0.4153  -0.3471  -0.2726   0.9257   1.0374   1.1814   1.2170
     1.4108   1.4172   1.5535   1.5747   1.7226   1.8403   1.8870   1.9678
     2.8265   2.9616   3.1323   3.1608   3.3923   3.4507   3.4739   3.6409
     3.7078   3.8612   3.9167   4.0757   4.1838   4.2061   4.3505   4.3547
     4.4926   4.6874   4.8922   4.9361   5.3065   5.3677   5.4163   5.4258
     5.5230   5.7145   5.7200   5.9111   6.1452   6.1747   6.4012   6.5351
     7.0013   7.0030   7.1632   7.2710   7.3028   7.3419   7.4107   7.5322
     7.9756   8.0912   8.3053   8.3689   8.3800   8.3948   8.4333   8.4476
     8.6605   8.9089   9.1547   9.1758  13.5925  14.7435  14.9105  15.3300
    15.5608  15.7248  16.0234  16.4799  16.5280  16.5983  16.7126  16.7910
    17.0988  17.4868

     occupation numbers 
     1.0000   1.0000   1.0000   1.0000   1.0000   1.0000   1.0000   1.0000
     1.0000   1.0000   1.0000   1.0000   1.0000   1.0000   1.0000   1.0000
     1.0000   1.0000   1.0000   1.0000   1.0000   1.0000   1.0000   1.0000
     1.0000   1.0000   1.0000   1.0000   1.0000   1.0000   1.0000   1.0000
     1.0000   1.0000   1.0000   1.0000   1.0000   1.0000   1.0000   1.0000
     1.0000   1.0000   1.0000   1.0000   1.0000   1.0000   1.0000   1.0000
     1.0000   1.0000   1.0000   1.0000   1.0000   1.0000   1.0000   1.0000
     1.0000   1.0000   1.0000   1.0000   1.0000   1.0000   1.0000   1.0000
     1.0000   1.0000   1.0000   1.0000   1.0000   1.0000   1.0000   1.0000
     1.0000   1.0000   1.0000   1.0000   1.0000   1.0000   1.0000   1.0000
     1.0000   1.0000   1.0000   1.0000   1.0000   1.0000   1.0000   1.0000
     1.0000   1.0000   1.0000   1.0000   1.0000   1.0000   1.0000   1.0000
     1.0000   1.0000   1.0000   1.0000   1.0000   1.0000   1.0000   1.0000
     1.0000   1.0000   1.0000   1.0000   1.0000   1.0000   1.0000   1.0000
     1.0000   1.0000   1.0000   1.0000   0.0000   0.0000   0.0000   0.0000
     0.0000   0.0000   0.0000   0.0000   0.0000   0.0000   0.0000   0.0000
     0.0000   0.0000

          k = 0.0000 0.2391 0.8882 ( 32940 PWs)   bands (ev):

   -79.3563 -79.3560 -79.3547 -79.3543 -46.2881 -46.2877 -46.2865 -46.2862
   -45.2185 -45.2183 -45.2170 -45.2165 -44.7628 -44.7623 -44.7611 -44.7607
   -41.6312 -41.6311 -41.6175 -41.6175 -14.4349 -14.4173 -13.9925 -13.9610
   -13.8151 -13.8131 -13.6902 -13.6877 -13.6620 -13.6557 -13.5924 -13.5919
   -13.5580 -13.5575 -13.3302 -13.3155 -11.2079 -11.2067 -11.1097 -11.0997
   -11.0604 -11.0410 -11.0339 -11.0173 -10.8728 -10.8619 -10.6551 -10.6434
    -0.5830  -0.4456  -0.3763  -0.3279   1.1588   1.2123   1.2447   1.3015
     1.4142   1.4443   1.4972   1.5370   1.7728   1.8456   2.0046   2.0155
     2.7828   2.8950   2.9898   3.0606   3.2681   3.3118   3.4756   3.5117
     3.7313   3.7752   3.9013   3.9642   4.1457   4.1558   4.3135   4.3212
     4.6216   4.7029   4.8039   4.8132   5.3980   5.4338   5.4746   5.4941
     5.6490   5.7321   5.8514   5.8941   6.0644   6.0672   6.4956   6.5360
     7.0129   7.0132   7.1934   7.2328   7.2460   7.2693   7.4457   7.4873
     8.1141   8.1940   8.2564   8.3061   8.3515   8.3672   8.4350   8.4463
     8.7515   8.8326   9.1558   9.1655  14.1346  14.6035  14.9372  15.1794
    15.8212  15.8420  16.0715  16.2731  16.4771  16.5563  16.6428  16.6860
    17.0379  17.2201

     occupation numbers 
     1.0000   1.0000   1.0000   1.0000   1.0000   1.0000   1.0000   1.0000
     1.0000   1.0000   1.0000   1.0000   1.0000   1.0000   1.0000   1.0000
     1.0000   1.0000   1.0000   1.0000   1.0000   1.0000   1.0000   1.0000
     1.0000   1.0000   1.0000   1.0000   1.0000   1.0000   1.0000   1.0000
     1.0000   1.0000   1.0000   1.0000   1.0000   1.0000   1.0000   1.0000
     1.0000   1.0000   1.0000   1.0000   1.0000   1.0000   1.0000   1.0000
     1.0000   1.0000   1.0000   1.0000   1.0000   1.0000   1.0000   1.0000
     1.0000   1.0000   1.0000   1.0000   1.0000   1.0000   1.0000   1.0000
     1.0000   1.0000   1.0000   1.0000   1.0000   1.0000   1.0000   1.0000
     1.0000   1.0000   1.0000   1.0000   1.0000   1.0000   1.0000   1.0000
     1.0000   1.0000   1.0000   1.0000   1.0000   1.0000   1.0000   1.0000
     1.0000   1.0000   1.0000   1.0000   1.0000   1.0000   1.0000   1.0000
     1.0000   1.0000   1.0000   1.0000   1.0000   1.0000   1.0000   1.0000
     1.0000   1.0000   1.0000   1.0000   1.0000   1.0000   1.0000   1.0000
     1.0000   1.0000   1.0000   1.0000   0.0000   0.0000   0.0000   0.0000
     0.0000   0.0000   0.0000   0.0000   0.0000   0.0000   0.0000   0.0000
     0.0000   0.0000

          k = 0.0000 0.4781 0.0000 ( 32886 PWs)   bands (ev):

   -79.3563 -79.3560 -79.3547 -79.3543 -46.2884 -46.2875 -46.2868 -46.2859
   -45.2186 -45.2183 -45.2170 -45.2165 -44.7629 -44.7622 -44.7613 -44.7606
   -41.6291 -41.6291 -41.6196 -41.6195 -14.3324 -14.2901 -14.2606 -14.1402
   -13.7450 -13.7383 -13.6770 -13.6694 -13.6666 -13.6650 -13.5949 -13.5921
   -13.5719 -13.5473 -13.3766 -13.3625 -11.2456 -11.2234 -11.2095 -11.0782
   -11.0130 -11.0091 -10.9930 -10.9571 -10.7173 -10.6814 -10.6809 -10.6648
    -0.8423  -0.4149  -0.3714  -0.2162   0.4760   0.8778   0.9143   0.9595
     1.3220   1.3260   1.4924   1.6397   1.7822   1.8786   1.8980   2.0399
     2.9284   3.0168   3.1057   3.4018   3.4704   3.5756   3.5927   3.8215
     3.8369   3.9830   4.0761   4.1580   4.2543   4.2907   4.5191   4.6505
     4.7439   4.8060   4.8353   4.8514   5.0863   5.2050   5.2764   5.4366
     5.4551   5.5884   5.5927   5.8847   5.9814   6.0314   6.2425   6.4707
     6.9938   7.0283   7.0880   7.2036   7.3679   7.5664   7.5916   7.7708
     7.8261   7.8720   8.1724   8.2408   8.2719   8.3313   8.3925   8.3961
     8.7334   9.2047   9.2150   9.2552  12.9733  14.7500  14.7548  14.7929
    15.7946  15.8883  15.8930  16.6989  16.8705  16.9219  17.2194  17.4359
    17.5450  17.6818

     occupation numbers 
     1.0000   1.0000   1.0000   1.0000   1.0000   1.0000   1.0000   1.0000
     1.0000   1.0000   1.0000   1.0000   1.0000   1.0000   1.0000   1.0000
     1.0000   1.0000   1.0000   1.0000   1.0000   1.0000   1.0000   1.0000
     1.0000   1.0000   1.0000   1.0000   1.0000   1.0000   1.0000   1.0000
     1.0000   1.0000   1.0000   1.0000   1.0000   1.0000   1.0000   1.0000
     1.0000   1.0000   1.0000   1.0000   1.0000   1.0000   1.0000   1.0000
     1.0000   1.0000   1.0000   1.0000   1.0000   1.0000   1.0000   1.0000
     1.0000   1.0000   1.0000   1.0000   1.0000   1.0000   1.0000   1.0000
     1.0000   1.0000   1.0000   1.0000   1.0000   1.0000   1.0000   1.0000
     1.0000   1.0000   1.0000   1.0000   1.0000   1.0000   1.0000   1.0000
     1.0000   1.0000   1.0000   1.0000   1.0000   1.0000   1.0000   1.0000
     1.0000   1.0000   1.0000   1.0000   1.0000   1.0000   1.0000   1.0000
     1.0000   1.0000   1.0000   1.0000   1.0000   1.0000   1.0000   1.0000
     1.0000   1.0000   1.0000   1.0000   1.0000   1.0000   1.0000   1.0000
     1.0000   1.0000   1.0000   1.0000   0.0000   0.0000   0.0000   0.0000
     0.0000   0.0000   0.0000   0.0000   0.0000   0.0000   0.0000   0.0000
     0.0000   0.0000

          k = 0.0000 0.4781 0.2220 ( 32900 PWs)   bands (ev):

   -79.3563 -79.3560 -79.3547 -79.3543 -46.2884 -46.2875 -46.2868 -46.2859
   -45.2185 -45.2183 -45.2170 -45.2165 -44.7629 -44.7622 -44.7612 -44.7606
   -41.6291 -41.6291 -41.6196 -41.6195 -14.3416 -14.2918 -14.2426 -14.1416
   -13.7458 -13.7394 -13.6815 -13.6754 -13.6586 -13.6565 -13.5938 -13.5935
   -13.5638 -13.5364 -13.3817 -13.3665 -11.2439 -11.2334 -11.1949 -11.0825
   -11.0173 -11.0126 -11.0051 -10.9538 -10.7221 -10.6894 -10.6890 -10.6739
    -0.8156  -0.3990  -0.3686  -0.2062   0.5319   0.8973   0.9596   1.0157
     1.3219   1.3375   1.5271   1.6526   1.7512   1.8713   1.8726   2.0176
     2.9355   2.9810   3.0925   3.3632   3.4299   3.5226   3.6071   3.7965
     3.8469   3.9731   4.0753   4.1637   4.2250   4.2600   4.5203   4.6247
     4.6917   4.7826   4.8483   4.8545   5.1313   5.2110   5.3088   5.4354
     5.4378   5.6074   5.6126   5.9044   5.9772   6.0525   6.2319   6.4618
     6.9854   7.0171   7.1054   7.2104   7.3716   7.5601   7.5839   7.7467
     7.7983   7.8815   8.1770   8.2457   8.3001   8.3526   8.3768   8.3850
     8.7468   9.1680   9.2344   9.2509  13.1045  14.7867  14.8059  14.9076
    15.7548  15.7847  16.1409  16.3803  16.8425  16.8771  17.3050  17.3119
    17.5436  17.5908

     occupation numbers 
     1.0000   1.0000   1.0000   1.0000   1.0000   1.0000   1.0000   1.0000
     1.0000   1.0000   1.0000   1.0000   1.0000   1.0000   1.0000   1.0000
     1.0000   1.0000   1.0000   1.0000   1.0000   1.0000   1.0000   1.0000
     1.0000   1.0000   1.0000   1.0000   1.0000   1.0000   1.0000   1.0000
     1.0000   1.0000   1.0000   1.0000   1.0000   1.0000   1.0000   1.0000
     1.0000   1.0000   1.0000   1.0000   1.0000   1.0000   1.0000   1.0000
     1.0000   1.0000   1.0000   1.0000   1.0000   1.0000   1.0000   1.0000
     1.0000   1.0000   1.0000   1.0000   1.0000   1.0000   1.0000   1.0000
     1.0000   1.0000   1.0000   1.0000   1.0000   1.0000   1.0000   1.0000
     1.0000   1.0000   1.0000   1.0000   1.0000   1.0000   1.0000   1.0000
     1.0000   1.0000   1.0000   1.0000   1.0000   1.0000   1.0000   1.0000
     1.0000   1.0000   1.0000   1.0000   1.0000   1.0000   1.0000   1.0000
     1.0000   1.0000   1.0000   1.0000   1.0000   1.0000   1.0000   1.0000
     1.0000   1.0000   1.0000   1.0000   1.0000   1.0000   1.0000   1.0000
     1.0000   1.0000   1.0000   1.0000   0.0000   0.0000   0.0000   0.0000
     0.0000   0.0000   0.0000   0.0000   0.0000   0.0000   0.0000   0.0000
     0.0000   0.0000

          k = 0.0000 0.4781 0.4441 ( 32922 PWs)   bands (ev):

[...]
     atom    1 type  2   force =     0.00000000    0.00000000    0.00000000
     atom    2 type  2   force =     0.00000000    0.00000000    0.00000000
     atom    3 type  2   force =     0.00000000   -0.00000000    0.00000000
     atom    4 type  2   force =     0.00000000    0.00000000    0.00000000
     atom    5 type  1   force =    -0.08521979    0.00000000    0.08302497
     atom    6 type  1   force =     0.08519793   -0.00000000    0.08302528
     atom    7 type  1   force =     0.08521979    0.00000000   -0.08302497
     atom    8 type  1   force =    -0.08519793    0.00000000   -0.08302528
     atom    9 type  4   force =     0.01201361    0.00000000    0.12735890
     atom   10 type  4   force =    -0.01191515    0.00000000    0.12728335
     atom   11 type  4   force =    -0.01201361    0.00000000   -0.12735890
     atom   12 type  4   force =     0.01191515    0.00000000   -0.12728335
     atom   13 type  3   force =     0.15040422    0.00000000   -1.43781120
     atom   14 type  3   force =    -0.15039213    0.00000000   -1.43781939
     atom   15 type  3   force =    -0.15040422    0.00000000    1.43781120
     atom   16 type  3   force =     0.15039213    0.00000000    1.43781939
     atom   17 type  3   force =     1.12705329    0.00000000   -0.72096212
     atom   18 type  3   force =    -1.12703587    0.00000000   -0.72100799
     atom   19 type  3   force =    -1.12705329    0.00000000    0.72096212
     atom   20 type  3   force =     1.12703587    0.00000000    0.72100799
     atom   21 type  3   force =    -0.60474998   -0.92743526    0.76887258
     atom   22 type  3   force =     0.60479015    0.92744760    0.76886159
     atom   23 type  3   force =     0.60474998   -0.92743526   -0.76887258
     atom   24 type  3   force =    -0.60479015    0.92744760   -0.76886159
     atom   25 type  3   force =     0.60474998    0.92743526   -0.76887258
     atom   26 type  3   force =    -0.60479015   -0.92744760   -0.76886159
     atom   27 type  3   force =    -0.60474998    0.92743526    0.76887258
     atom   28 type  3   force =     0.60479015   -0.92744760    0.76886159
     The ionic contribution  to forces
     atom    1 type  2   force =     0.00044895   -0.00008174    0.00024758
     atom    2 type  2   force =    -0.00025465    0.00020116    0.00004747
     atom    3 type  2   force =     0.00057951    0.00019918    0.00030471
     atom    4 type  2   force =    -0.00012409   -0.00008373   -0.00000966
     atom    5 type  1   force =     2.41845228   -0.00081056   -1.12418412
     atom    6 type  1   force =    -2.41643307    0.00079191   -1.12372817
     atom    7 type  1   force =    -2.41891629    0.00079191    1.12427883
     atom    8 type  1   force =     2.41658425   -0.00081056    1.12353735
     atom    9 type  4   force =    -0.55792564   -0.00019317    2.97555890
     atom   10 type  4   force =     0.55895741    0.00018227    2.97486634
     atom   11 type  4   force =     0.55804106    0.00018227   -2.97565623
     atom   12 type  4   force =    -0.55910436   -0.00019317   -2.97482630
     atom   13 type  3   force =    -3.88056128   -0.00026057    0.78468286
     atom   14 type  3   force =     3.88135066    0.00020329    0.78524424
     atom   15 type  3   force =     3.88082771    0.00020329   -0.78464281
     atom   16 type  3   force =    -3.88150928   -0.00026056   -0.78521897
     atom   17 type  3   force =    -1.70122255   -0.00024763    3.33182483
     atom   18 type  3   force =     1.70255120    0.00019445    3.33194039
     atom   19 type  3   force =     1.70100615    0.00019445   -3.33189168
     atom   20 type  3   force =    -1.70223452   -0.00024763   -3.33189264
     atom   21 type  3   force =     0.97327498    2.53141633   -1.82922017
     atom   22 type  3   force =    -0.97263597   -2.53116895   -1.82951874
     atom   23 type  3   force =    -0.97349987    2.53181580    1.82874030
     atom   24 type  3   force =     0.97260414   -2.53170350    1.82928388
     atom   25 type  3   force =    -0.97338067   -2.53135788    1.82898268
     atom   26 type  3   force =     0.97249756    2.53126815    1.82951477
     atom   27 type  3   force =     0.97338156   -2.53185169   -1.82898929
     atom   28 type  3   force =    -0.97275518    2.53162687   -1.82927635
     The local contribution  to forces
     atom    1 type  2   force =     0.00000000   -0.00000000    0.00000000
     atom    2 type  2   force =    -0.00453085   -0.00017595   -0.00223055
     atom    3 type  2   force =     0.00008911   -0.00179540    0.00003798
     atom    4 type  2   force =    -0.00444175   -0.00161945   -0.00226852
     atom    5 type  1   force =    -2.35507313   -0.00840603    1.03325797
     atom    6 type  1   force =     2.33369868   -0.00210151    1.03248547
     atom    7 type  1   force =     2.33420385   -0.00210151   -1.04381141
     atom    8 type  1   force =    -2.35126375   -0.00840602   -1.04338656
     atom    9 type  4   force =     0.53335621   -0.00000234   -2.94495953
     atom   10 type  4   force =    -0.53437043   -0.00000059   -2.94416153
     atom   11 type  4   force =    -0.53336595   -0.00000059    2.94500947
     atom   12 type  4   force =     0.53441070   -0.00000232    2.94431153
     atom   13 type  3   force =     3.71719390   -0.00195056    0.64404226
     atom   14 type  3   force =    -3.72246238   -0.00048764    0.64324442
     atom   15 type  3   force =    -3.72154744   -0.00048764   -0.64617156
     atom   16 type  3   force =     3.71777264   -0.00195057   -0.64594961
     atom   17 type  3   force =     0.41542185   -0.00200390   -2.57382343
     atom   18 type  3   force =    -0.42040158   -0.00050098   -2.57410111
     atom   19 type  3   force =    -0.41909463   -0.00050098    2.57169447
     atom   20 type  3   force =     0.41643158   -0.00200392    2.57137826
     atom   21 type  3   force =    -0.27881295   -1.45113834    1.00608544
     atom   22 type  3   force =     0.27326399    1.44924832    1.00649209
     atom   23 type  3   force =     0.27390858   -1.45040645   -1.00850550
     atom   24 type  3   force =    -0.27817654    1.44791679   -1.00857046
     atom   25 type  3   force =     0.27396829    1.44959801   -1.00843348
     atom   26 type  3   force =    -0.27793767   -1.45115054   -1.00885859
     atom   27 type  3   force =    -0.27905183    1.44790461    1.00579731
     atom   28 type  3   force =     0.27320427   -1.45005675    1.00656411
     The core correction contribution to forces
     atom    1 type  2   force =     0.00000000    0.00000000    0.00000000
     atom    2 type  2   force =     0.00000000    0.00000000    0.00000000
     atom    3 type  2   force =     0.00000000    0.00000000    0.00000000
     atom    4 type  2   force =     0.00000000    0.00000000    0.00000000
     atom    5 type  1   force =     0.00482452    0.00025395   -0.00281541
     atom    6 type  1   force =    -0.00413992    0.00006349   -0.00282873
     atom    7 type  1   force =    -0.00407151    0.00006349    0.00321665
     atom    8 type  1   force =     0.00475418    0.00025395    0.00320348
     atom    9 type  4   force =    -0.00114998    0.00000621   -0.01474437
     atom   10 type  4   force =     0.00115822    0.00000155   -0.01473689
     atom   11 type  4   force =     0.00116643    0.00000155    0.01475223
     atom   12 type  4   force =    -0.00114144    0.00000621    0.01474540
     atom   13 type  3   force =    -0.00188253   -0.00000105    0.01215695
     atom   14 type  3   force =     0.00187886   -0.00000026    0.01215688
     atom   15 type  3   force =     0.00187867   -0.00000026   -0.01216161
     atom   16 type  3   force =    -0.00188202   -0.00000105   -0.01216034
     atom   17 type  3   force =    -0.00702025   -0.00000121    0.00615606
     atom   18 type  3   force =     0.00701314   -0.00000030    0.00615530
     atom   19 type  3   force =     0.00701525   -0.00000030   -0.00615742
     atom   20 type  3   force =    -0.00701880   -0.00000121   -0.00615801
     atom   21 type  3   force =     0.00391090    0.00578307   -0.00601197
     atom   22 type  3   force =    -0.00391480   -0.00578598   -0.00601273
     atom   23 type  3   force =    -0.00391379    0.00578478    0.00601043
     atom   24 type  3   force =     0.00391131   -0.00578688    0.00600950
     atom   25 type  3   force =    -0.00391387   -0.00578572    0.00601047
     atom   26 type  3   force =     0.00391098    0.00578314    0.00600935
     atom   27 type  3   force =     0.00391122   -0.00578681   -0.00601213
     atom   28 type  3   force =    -0.00391472    0.00578505   -0.00601269
     The Hubbard contrib.    to forces
     atom    1 type  2   force =     0.00000000    0.00000000    0.00000000
     atom    2 type  2   force =     0.00000000    0.00000000    0.00000000
     atom    3 type  2   force =     0.00000000    0.00000000    0.00000000
     atom    4 type  2   force =     0.00000000    0.00000000    0.00000000
     atom    5 type  1   force =     0.00000000    0.00000000    0.00000000
     atom    6 type  1   force =     0.00000000    0.00000000    0.00000000
     atom    7 type  1   force =     0.00000000    0.00000000    0.00000000
     atom    8 type  1   force =     0.00000000    0.00000000    0.00000000
     atom    9 type  4   force =     0.00000000    0.00000000    0.00000000
     atom   10 type  4   force =     0.00000000    0.00000000    0.00000000
     atom   11 type  4   force =     0.00000000    0.00000000    0.00000000
     atom   12 type  4   force =     0.00000000    0.00000000    0.00000000
     atom   13 type  3   force =     0.00000000    0.00000000    0.00000000
     atom   14 type  3   force =     0.00000000    0.00000000    0.00000000
     atom   15 type  3   force =     0.00000000    0.00000000    0.00000000
     atom   16 type  3   force =     0.00000000    0.00000000    0.00000000
     atom   17 type  3   force =     0.00000000    0.00000000    0.00000000
     atom   18 type  3   force =     0.00000000    0.00000000    0.00000000
     atom   19 type  3   force =     0.00000000    0.00000000    0.00000000
     atom   20 type  3   force =     0.00000000    0.00000000    0.00000000
     atom   21 type  3   force =     0.00000000    0.00000000    0.00000000
     atom   22 type  3   force =     0.00000000    0.00000000    0.00000000
     atom   23 type  3   force =     0.00000000    0.00000000    0.00000000
     atom   24 type  3   force =     0.00000000    0.00000000    0.00000000
     atom   25 type  3   force =     0.00000000    0.00000000    0.00000000
     atom   26 type  3   force =     0.00000000    0.00000000    0.00000000
     atom   27 type  3   force =     0.00000000    0.00000000    0.00000000
     atom   28 type  3   force =     0.00000000    0.00000000    0.00000000
     The SCF correction term to forces
     atom    1 type  2   force =     0.00000000   -0.00000000    0.00000000
     atom    2 type  2   force =    -0.00000000    0.00000000   -0.00000000
     atom    3 type  2   force =     0.00000000   -0.00000000    0.00000000
     atom    4 type  2   force =    -0.00000000   -0.00000000   -0.00000000
     atom    5 type  1   force =     0.00000093   -0.00000001   -0.00000144
     atom    6 type  1   force =     0.00000131   -0.00000000    0.00000085
     atom    7 type  1   force =    -0.00000095   -0.00000000    0.00000143
     atom    8 type  1   force =    -0.00000132   -0.00000001   -0.00000086
     atom    9 type  4   force =     0.00000085   -0.00000000   -0.00000006
     atom   10 type  4   force =     0.00000067    0.00000000    0.00000008
     atom   11 type  4   force =    -0.00000085    0.00000000    0.00000006
     atom   12 type  4   force =    -0.00000067   -0.00000000   -0.00000008
     atom   13 type  3   force =     0.00000228   -0.00000000    0.00000055
     atom   14 type  3   force =     0.00000117    0.00000000    0.00000053
     atom   15 type  3   force =    -0.00000228    0.00000000   -0.00000055
     atom   16 type  3   force =    -0.00000117   -0.00000000   -0.00000053
     atom   17 type  3   force =    -0.00000102   -0.00000000   -0.00000096
     atom   18 type  3   force =    -0.00000149    0.00000000    0.00000025
     atom   19 type  3   force =     0.00000102    0.00000000    0.00000096
     atom   20 type  3   force =     0.00000148   -0.00000000   -0.00000025
     atom   21 type  3   force =     0.00000083   -0.00000273   -0.00000222
     atom   22 type  3   force =     0.00000024   -0.00000273    0.00000149
     atom   23 type  3   force =    -0.00000083   -0.00000273    0.00000222
     atom   24 type  3   force =    -0.00000024   -0.00000273   -0.00000149
     atom   25 type  3   force =    -0.00000083    0.00000273    0.00000222
     atom   26 type  3   force =    -0.00000024    0.00000273   -0.00000149
     atom   27 type  3   force =     0.00000083    0.00000273   -0.00000222
     atom   28 type  3   force =     0.00000024    0.00000273    0.00000149

     Total force =     0.711382     Total SCF correction =     0.000011


     Computing stress (Cartesian axis) and pressure


     negative rho (up, down):  0.000E+00 4.498E-04
          total   stress  (Ry/bohr**3)                   (kbar)     P=      292.61
   0.00236045   0.00000000   0.00000008          347.23        0.00        0.01
   0.00000000   0.00245942   0.00000000            0.00      361.79        0.00
   0.00000008   0.00000000   0.00114752            0.01        0.00      168.81

     kinetic stress (kbar)  36279.40      0.00      0.00
                                0.00  36120.38      0.00
                                0.00      0.00  36009.57

     local   stress (kbar)  -3392.06     -0.11      0.03
                               -0.11  -4277.97     -0.00
                                0.03     -0.00   -660.18

     nonloc. stress (kbar) -10819.21      0.00      0.01
                                0.00 -10928.55      0.00
                                0.01      0.00 -10769.37

     hartree stress (kbar)  15931.19     -0.00     -0.03
                               -0.00  16278.61      0.00
                               -0.03      0.00  14577.42

     exc-cor stress (kbar)  -4087.14      0.00      0.00
                                0.00  -4093.87     -0.00
                                0.00     -0.00  -4083.93

     corecor stress (kbar)  -3466.04     -0.00     -0.00
                               -0.00  -3446.55      0.00
                               -0.00      0.00  -3469.86

     ewald   stress (kbar) -30098.90      0.11      0.00
                                0.11 -29290.27      0.00
                                0.00      0.00 -31434.85

     hubbard stress (kbar)      0.00      0.00      0.00
                                0.00      0.00      0.00
                                0.00      0.00      0.00

     DFT-D   stress (kbar)      0.00      0.00      0.00
                                0.00      0.00      0.00
                                0.00      0.00      0.00

     XDM     stress (kbar)      0.00      0.00      0.00
                                0.00      0.00      0.00
                                0.00      0.00      0.00

     dft-nl  stress (kbar)      0.00      0.00      0.00
                                0.00      0.00      0.00
                                0.00      0.00      0.00

     TS-vdW  stress (kbar)      0.00      0.00      0.00
                                0.00      0.00      0.00
                                0.00      0.00      0.00



     init_run     :   1291.65s CPU   1604.02s WALL (       1 calls)
     electrons    : 122231.72s CPU 150130.51s WALL (       1 calls)
     forces       :    160.90s CPU    220.43s WALL (       1 calls)
     stress       :    583.41s CPU    697.99s WALL (       1 calls)

     Called by init_run:
     wfcinit      :   1274.36s CPU   1582.33s WALL (       1 calls)
     wfcinit:atom :      0.87s CPU      1.07s WALL (     184 calls)
     wfcinit:wfcr :   1268.41s CPU   1574.99s WALL (     184 calls)
     potinit      :      6.86s CPU      8.65s WALL (       1 calls)
     hinit0       :      7.31s CPU      8.65s WALL (       1 calls)

     Called by electrons:
     c_bands      : 101985.52s CPU 125690.17s WALL (      38 calls)
     sum_band     :  19968.28s CPU  24091.26s WALL (      38 calls)
     v_of_rho     :     81.20s CPU     97.31s WALL (      39 calls)
     v_h          :      5.70s CPU      6.78s WALL (      39 calls)
     v_xc         :     78.93s CPU     95.17s WALL (      41 calls)
     newd         :     84.44s CPU    116.60s WALL (      39 calls)
     PAW_pot      :     40.43s CPU     49.03s WALL (      39 calls)
     mix_rho      :     54.28s CPU     65.41s WALL (      38 calls)

     Called by c_bands:
     init_us_2    :    106.95s CPU    130.74s WALL (   14536 calls)
     cegterg      : 101127.72s CPU 124619.15s WALL (    6992 calls)

     Called by sum_band:
     sum_band:wei :      0.39s CPU      0.54s WALL (      38 calls)
     sum_band:loo :  19750.60s CPU  23810.50s WALL (      38 calls)
     sum_band:buf :     28.55s CPU     31.41s WALL (    6992 calls)
     sum_band:ini :     45.18s CPU     55.98s WALL (    6992 calls)
     sum_band:cal :   1531.98s CPU   1836.93s WALL (    6992 calls)
     sum_band:bec :      4.51s CPU      4.89s WALL (    6992 calls)
     addusdens    :    165.25s CPU    222.96s WALL (      38 calls)
     addusd:skk   :      1.01s CPU      1.28s WALL (     114 calls)
     addusd:dgemm :     53.15s CPU     82.47s WALL (     228 calls)
     addusd:qvan2 :    107.50s CPU    133.89s WALL (     228 calls)

     Called by *egterg:
     cdiaghg      :   2506.63s CPU   3123.27s WALL (   24560 calls)
     cegterg:over :   4446.36s CPU   5354.25s WALL (   17568 calls)
     cegterg:upda :    915.38s CPU   1151.71s WALL (   17568 calls)
     cegterg:last :   1968.66s CPU   2474.93s WALL (   11850 calls)
     h_psi        :  86708.04s CPU 107038.13s WALL (   24744 calls)
     s_psi        :   1904.93s CPU   2384.32s WALL (   24744 calls)
     g_psi        :     13.74s CPU     16.94s WALL (   17568 calls)

     Called by h_psi:
     h_psi:calbec :   3872.26s CPU   4692.58s WALL (   24744 calls)
     vloc_psi     :  80855.91s CPU  99809.15s WALL (   24744 calls)
     add_vuspsi   :   1935.13s CPU   2475.79s WALL (   24744 calls)

     General routines
     calbec       :   5664.19s CPU   6853.96s WALL (   32656 calls)
     fft          :     94.88s CPU    113.96s WALL (    1013 calls)
     ffts         :     12.13s CPU     14.57s WALL (     154 calls)
     fftw         :  98717.38s CPU 121409.46s WALL ( 5044262 calls)
     interpolate  :     13.46s CPU     16.19s WALL (      78 calls)

     Parallel routines
     fft_scatt_xy :    346.70s CPU    350.89s WALL ( 5045429 calls)
     fft_scatt_yz :  96535.87s CPU 119173.04s WALL ( 5045429 calls)

     PAW routines
     PAW_pot      :     40.43s CPU     49.03s WALL (      39 calls)
     PAW_symme    :      4.02s CPU      4.87s WALL (      77 calls)

     PWSCF        :   1d10h31m CPU   1d18h24m WALL


   This run was terminated on:  15:46:49   3Feb2023            

=------------------------------------------------------------------------------=
   JOB DONE.
=------------------------------------------------------------------------------=
Note: The following floating-point exceptions are signalling: IEEE_UNDERFLOW_FLAG IEEE_DENORMAL
Note: The following floating-point exceptions are signalling: IEEE_DENORMAL
Note: The following floating-point exceptions are signalling: IEEE_DENORMAL
Note: The following floating-point exceptions are signalling: IEEE_DENORMAL
Note: The following floating-point exceptions are signalling: IEEE_DENORMAL
Note: The following floating-point exceptions are signalling: IEEE_DENORMAL
Note: The following floating-point exceptions are signalling: IEEE_DENORMAL
Note: The following floating-point exceptions are signalling: IEEE_INVALID_FLAG IEEE_DENORMAL
