
     Program PWSCF v.6.7MaX starts on  3Feb2023 at 19:11:45 

     This program is part of the open-source Quantum ESPRESSO suite
     for quantum simulation of materials; please cite
         "P. Giannozzi et al., J. Phys.:Condens. Matter 21 395502 (2009);
         "P. Giannozzi et al., J. Phys.:Condens. Matter 29 465901 (2017);
          URL http://www.quantum-espresso.org", 
     in publications or presentations arising from this work. More details at
     http://www.quantum-espresso.org/quote

     Parallel version (MPI), running on    12 processors

     MPI processes distributed on     1 nodes
     R & G space division:  proc/nbgrp/npool/nimage =      12
     Reading input from scale_2dab-02.in

     Current dimensions of program PWSCF are:
     Max number of different atomic species (ntypx) = 10
     Max number of k-points (npk) =  40000
     Max angular momentum in pseudopotentials (lmaxx) =  3
     Message from routine read_pp_mesh:
     mesh size missing, using the one in header
     file Fe.pbe-spn-kjpaw_psl.0.2.1.UPF: wavefunction(s)  3D renormalized
     file O.pbe-n-kjpaw_psl.0.1.UPF: wavefunction(s)  2P renormalized

     Subspace diagonalization in iterative solution of the eigenvalue problem:
     a serial algorithm will be used

     Message from routine setup:
     using ibrav=0 with symmetry is DISCOURAGED, use correct ibrav instead

     Parallelization info
     --------------------
     sticks:   dense  smooth     PW     G-vecs:    dense   smooth      PW
     Min        1600     592    159               104339    23526    3313
     Max        1602     593    160               104340    23528    3316
     Sum       19211    7107   1919              1252071   282325   39769



     bravais-lattice index     =            0
     lattice parameter (alat)  =      19.3373  a.u.
     unit-cell volume          =    2088.9460 (a.u.)^3
     number of atoms/cell      =           28
     number of atomic types    =            4
     number of electrons       =       216.00
     number of Kohn-Sham states=          130
     kinetic-energy cutoff     =     100.0000  Ry
     charge density cutoff     =    1080.0000  Ry
     scf convergence threshold =      2.0E-10
     mixing beta               =       0.4000
     number of iterations used =            8  plain     mixing
     Exchange-correlation= PBE
                           (   1   4   3   4   0   0   0)

     celldm(1)=  19.337306  celldm(2)=   0.000000  celldm(3)=   0.000000
     celldm(4)=   0.000000  celldm(5)=   0.000000  celldm(6)=   0.000000

     crystal axes: (cart. coord. in units of alat)
               a(1) = (   1.000000   0.000000   0.000000 )  
               a(2) = (   0.000000   0.597590   0.000000 )  
               a(3) = (   0.000000   0.000000   0.483433 )  

     reciprocal axes: (cart. coord. in units 2 pi/alat)
               b(1) = (  1.000000  0.000000  0.000000 )  
               b(2) = (  0.000000  1.673388  0.000000 )  
               b(3) = (  0.000000  0.000000  2.068540 )  


     PseudoPot. # 1 for Fe read from file:
     /opt/QEpot/SSSP_precision_pseudos/Fe.pbe-spn-kjpaw_psl.0.2.1.UPF
     MD5 check sum: e86618425769142926afa95317d90200
     Pseudo is Projector augmented-wave + core cor, Zval = 16.0
     Generated using "atomic" code by A. Dal Corso  v.5.0.99 svn rev. 10869
     Shape of augmentation charge: PSQ
     Using radial grid of 1191 points,  6 beta functions with: 
                l(1) =   0
                l(2) =   0
                l(3) =   1
                l(4) =   1
                l(5) =   2
                l(6) =   2
     Q(r) pseudized with 0 coefficients 


     PseudoPot. # 2 for Na read from file:
     /opt/QEpot/SSSP_precision_pseudos/Na_ONCV_PBE-1.0.oncvpsp.upf
     MD5 check sum: 24a298df0a6742ae313db96548fdb2a4
     Pseudo is Norm-conserving, Zval =  9.0
     Generated using ONCVPSP code by D. R. Hamann
     Using radial grid of 1992 points,  4 beta functions with: 
                l(1) =   0
                l(2) =   0
                l(3) =   1
                l(4) =   1

     PseudoPot. # 3 for O  read from file:
     /opt/QEpot/SSSP_precision_pseudos/O.pbe-n-kjpaw_psl.0.1.UPF
     MD5 check sum: 0234752ac141de4415c5fc33072bef88
     Pseudo is Projector augmented-wave + core cor, Zval =  6.0
     Generated using "atomic" code by A. Dal Corso  v.5.0.99 svn rev. 10869
     Shape of augmentation charge: BESSEL
     Using radial grid of 1095 points,  4 beta functions with: 
                l(1) =   0
                l(2) =   0
                l(3) =   1
                l(4) =   1
     Q(r) pseudized with 0 coefficients 


     PseudoPot. # 4 for P  read from file:
     /opt/QEpot/SSSP_precision_pseudos/P.pbe-n-rrkjus_psl.1.0.0.UPF
     MD5 check sum: 8b930f418f0a4573dca56cd030ffe088
     Pseudo is Ultrasoft + core correction, Zval =  5.0
     Generated using "atomic" code by A. Dal Corso  v.5.1
     Using radial grid of 1147 points,  6 beta functions with: 
                l(1) =   0
                l(2) =   0
                l(3) =   1
                l(4) =   1
                l(5) =   2
                l(6) =   2
     Q(r) pseudized with 0 coefficients 


     atomic species   valence    mass     pseudopotential
        Fe            16.00    55.84500     Fe( 1.00)
        Na             9.00    22.98977     Na( 1.00)
        O              6.00    15.99940     O ( 1.00)
        P              5.00    30.97376     P ( 1.00)

     Starting magnetic structure 
     atomic species   magnetization
        Fe           0.312
        Na           0.000
        O            0.000
        P            0.000

      4 Sym. Ops., with inversion, found ( 2 have fractional translation)


                                    s                        frac. trans.

      isym =  1     identity                                     

 cryst.   s( 1) = (     1          0          0      )
                  (     0          1          0      )
                  (     0          0          1      )

 cart.    s( 1) = (  1.0000000  0.0000000  0.0000000 )
                  (  0.0000000  1.0000000  0.0000000 )
                  (  0.0000000  0.0000000  1.0000000 )


      isym =  2     180 deg rotation - cart. axis [0,1,0]        

 cryst.   s( 2) = (    -1          0          0      )    f =(  0.0000000 )
                  (     0          1          0      )       ( -0.4999980 )
                  (     0          0         -1      )       (  0.0000000 )

 cart.    s( 2) = ( -1.0000000  0.0000000  0.0000000 )    f =(  0.0000000 )
                  (  0.0000000  1.0000000  0.0000000 )       ( -0.2987938 )
                  (  0.0000000  0.0000000 -1.0000000 )       (  0.0000000 )


      isym =  3     inversion                                    

 cryst.   s( 3) = (    -1          0          0      )
                  (     0         -1          0      )
                  (     0          0         -1      )

 cart.    s( 3) = ( -1.0000000  0.0000000  0.0000000 )
                  (  0.0000000 -1.0000000  0.0000000 )
                  (  0.0000000  0.0000000 -1.0000000 )


      isym =  4     inv. 180 deg rotation - cart. axis [0,1,0]   

 cryst.   s( 4) = (     1          0          0      )    f =(  0.0000000 )
                  (     0         -1          0      )       (  0.4999980 )
                  (     0          0          1      )       (  0.0000000 )

 cart.    s( 4) = (  1.0000000  0.0000000  0.0000000 )    f =(  0.0000000 )
                  (  0.0000000 -1.0000000  0.0000000 )       (  0.2987938 )
                  (  0.0000000  0.0000000  1.0000000 )       (  0.0000000 )


   Cartesian axes

     site n.     atom                  positions (alat units)
         1           Na  tau(   1) = (   0.0000000   0.0000000   0.0000000  )
         2           Na  tau(   2) = (   0.5000030   0.0000000   0.2417178  )
         3           Na  tau(   3) = (   0.0000000   0.2987962   0.0000000  )
         4           Na  tau(   4) = (   0.5000030   0.2987962   0.2417178  )
         5           Fe  tau(   5) = (   0.2870220   0.4481948   0.4768513  )
         6           Fe  tau(   6) = (   0.2129810   0.1493981   0.2351334  )
         7           Fe  tau(   7) = (   0.7129840   0.1493981   0.0065844  )
         8           Fe  tau(   8) = (   0.7870240   0.4481948   0.2483022  )
         9           P   tau(   9) = (   0.1083410   0.4481948   0.2139736  )
        10           P   tau(  10) = (   0.3916620   0.1493981   0.4556914  )
        11           P   tau(  11) = (   0.8916650   0.1493981   0.2694620  )
        12           P   tau(  12) = (   0.6083440   0.4481948   0.0277442  )
        13           O   tau(  13) = (   0.1140120   0.4481948   0.3637464  )
        14           O   tau(  14) = (   0.3859910   0.1493981   0.1220286  )
        15           O   tau(  15) = (   0.8859940   0.1493981   0.1196897  )
        16           O   tau(  16) = (   0.6140150   0.4481948   0.3614075  )
        17           O   tau(  17) = (   0.4685140   0.4481948   0.0778907  )
        18           O   tau(  18) = (   0.0314890   0.1493981   0.3196085  )
        19           O   tau(  19) = (   0.5314920   0.1493981   0.4055449  )
        20           O   tau(  20) = (   0.9685170   0.4481948   0.1638271  )
        21           O   tau(  21) = (   0.1755910   0.5644936   0.1507411  )
        22           O   tau(  22) = (   0.3244120   0.0330993   0.3924589  )
        23           O   tau(  23) = (   0.8244150   0.2656968   0.3326945  )
        24           O   tau(  24) = (   0.6755940   0.3318961   0.0909767  )
        25           O   tau(  25) = (   0.8244150   0.0330993   0.3326945  )
        26           O   tau(  26) = (   0.6755940   0.5644936   0.0909767  )
        27           O   tau(  27) = (   0.1755910   0.3318961   0.1507411  )
        28           O   tau(  28) = (   0.3244120   0.2656968   0.3924589  )

   Crystallographic axes

     site n.     atom                  positions (cryst. coord.)
         1           Na  tau(   1) = (  0.0000000  0.0000000  0.0000000  )
         2           Na  tau(   2) = (  0.5000030  0.0000000  0.5000030  )
         3           Na  tau(   3) = (  0.0000000  0.5000020  0.0000000  )
         4           Na  tau(   4) = (  0.5000030  0.5000020  0.5000030  )
         5           Fe  tau(   5) = (  0.2870220  0.7500040  0.9863860  )
         6           Fe  tau(   6) = (  0.2129810  0.2500010  0.4863830  )
         7           Fe  tau(   7) = (  0.7129840  0.2500010  0.0136200  )
         8           Fe  tau(   8) = (  0.7870240  0.7500040  0.5136230  )
         9           P   tau(   9) = (  0.1083410  0.7500040  0.4426130  )
        10           P   tau(  10) = (  0.3916620  0.2500010  0.9426160  )
        11           P   tau(  11) = (  0.8916650  0.2500010  0.5573930  )
        12           P   tau(  12) = (  0.6083440  0.7500040  0.0573900  )
        13           O   tau(  13) = (  0.1140120  0.7500040  0.7524240  )
        14           O   tau(  14) = (  0.3859910  0.2500010  0.2524210  )
        15           O   tau(  15) = (  0.8859940  0.2500010  0.2475830  )
        16           O   tau(  16) = (  0.6140150  0.7500040  0.7475860  )
        17           O   tau(  17) = (  0.4685140  0.7500040  0.1611200  )
        18           O   tau(  18) = (  0.0314890  0.2500010  0.6611230  )
        19           O   tau(  19) = (  0.5314920  0.2500010  0.8388860  )
        20           O   tau(  20) = (  0.9685170  0.7500040  0.3388830  )
        21           O   tau(  21) = (  0.1755910  0.9446170  0.3118140  )
        22           O   tau(  22) = (  0.3244120  0.0553880  0.8118170  )
        23           O   tau(  23) = (  0.8244150  0.4446140  0.6881920  )
        24           O   tau(  24) = (  0.6755940  0.5553910  0.1881890  )
        25           O   tau(  25) = (  0.8244150  0.0553880  0.6881920  )
        26           O   tau(  26) = (  0.6755940  0.9446170  0.1881890  )
        27           O   tau(  27) = (  0.1755910  0.5553910  0.3118140  )
        28           O   tau(  28) = (  0.3244120  0.4446140  0.8118170  )

     number of k points=    92  Marzari-Vanderbilt smearing, width (Ry)=  0.0073
                       cart. coord. in units 2pi/alat
        k(    1) = (   0.0000000   0.0000000   0.0000000), wk =   0.0031746
        k(    2) = (   0.0000000   0.0000000   0.2298378), wk =   0.0063492
        k(    3) = (   0.0000000   0.0000000   0.4596756), wk =   0.0063492
        k(    4) = (   0.0000000   0.0000000   0.6895134), wk =   0.0063492
        k(    5) = (   0.0000000   0.0000000   0.9193512), wk =   0.0063492
        k(    6) = (   0.0000000   0.2390555   0.0000000), wk =   0.0063492
        k(    7) = (   0.0000000   0.2390555   0.2298378), wk =   0.0126984
        k(    8) = (   0.0000000   0.2390555   0.4596756), wk =   0.0126984
        k(    9) = (   0.0000000   0.2390555   0.6895134), wk =   0.0126984
        k(   10) = (   0.0000000   0.2390555   0.9193512), wk =   0.0126984
        k(   11) = (   0.0000000   0.4781110   0.0000000), wk =   0.0063492
        k(   12) = (   0.0000000   0.4781110   0.2298378), wk =   0.0126984
        k(   13) = (   0.0000000   0.4781110   0.4596756), wk =   0.0126984
        k(   14) = (   0.0000000   0.4781110   0.6895134), wk =   0.0126984
        k(   15) = (   0.0000000   0.4781110   0.9193512), wk =   0.0126984
        k(   16) = (   0.0000000   0.7171664   0.0000000), wk =   0.0063492
        k(   17) = (   0.0000000   0.7171664   0.2298378), wk =   0.0126984
        k(   18) = (   0.0000000   0.7171664   0.4596756), wk =   0.0126984
        k(   19) = (   0.0000000   0.7171664   0.6895134), wk =   0.0126984
        k(   20) = (   0.0000000   0.7171664   0.9193512), wk =   0.0126984
        k(   21) = (   0.2000000   0.0000000   0.0000000), wk =   0.0063492
        k(   22) = (   0.2000000   0.0000000   0.2298378), wk =   0.0063492
        k(   23) = (   0.2000000   0.0000000   0.4596756), wk =   0.0063492
        k(   24) = (   0.2000000   0.0000000   0.6895134), wk =   0.0063492
        k(   25) = (   0.2000000   0.0000000   0.9193512), wk =   0.0063492
        k(   26) = (   0.2000000   0.2390555   0.0000000), wk =   0.0126984
        k(   27) = (   0.2000000   0.2390555   0.2298378), wk =   0.0126984
        k(   28) = (   0.2000000   0.2390555   0.4596756), wk =   0.0126984
        k(   29) = (   0.2000000   0.2390555   0.6895134), wk =   0.0126984
        k(   30) = (   0.2000000   0.2390555   0.9193512), wk =   0.0126984
        k(   31) = (   0.2000000   0.4781110   0.0000000), wk =   0.0126984
        k(   32) = (   0.2000000   0.4781110   0.2298378), wk =   0.0126984
        k(   33) = (   0.2000000   0.4781110   0.4596756), wk =   0.0126984
        k(   34) = (   0.2000000   0.4781110   0.6895134), wk =   0.0126984
        k(   35) = (   0.2000000   0.4781110   0.9193512), wk =   0.0126984
        k(   36) = (   0.2000000   0.7171664   0.0000000), wk =   0.0126984
        k(   37) = (   0.2000000   0.7171664   0.2298378), wk =   0.0126984
        k(   38) = (   0.2000000   0.7171664   0.4596756), wk =   0.0126984
        k(   39) = (   0.2000000   0.7171664   0.6895134), wk =   0.0126984
        k(   40) = (   0.2000000   0.7171664   0.9193512), wk =   0.0126984
        k(   41) = (   0.4000000   0.0000000   0.0000000), wk =   0.0063492
        k(   42) = (   0.4000000   0.0000000   0.2298378), wk =   0.0063492
        k(   43) = (   0.4000000   0.0000000   0.4596756), wk =   0.0063492
        k(   44) = (   0.4000000   0.0000000   0.6895134), wk =   0.0063492
        k(   45) = (   0.4000000   0.0000000   0.9193512), wk =   0.0063492
        k(   46) = (   0.4000000   0.2390555   0.0000000), wk =   0.0126984
        k(   47) = (   0.4000000   0.2390555   0.2298378), wk =   0.0126984
        k(   48) = (   0.4000000   0.2390555   0.4596756), wk =   0.0126984
        k(   49) = (   0.4000000   0.2390555   0.6895134), wk =   0.0126984
        k(   50) = (   0.4000000   0.2390555   0.9193512), wk =   0.0126984
        k(   51) = (   0.4000000   0.4781110   0.0000000), wk =   0.0126984
        k(   52) = (   0.4000000   0.4781110   0.2298378), wk =   0.0126984
        k(   53) = (   0.4000000   0.4781110   0.4596756), wk =   0.0126984
        k(   54) = (   0.4000000   0.4781110   0.6895134), wk =   0.0126984
        k(   55) = (   0.4000000   0.4781110   0.9193512), wk =   0.0126984
        k(   56) = (   0.4000000   0.7171664   0.0000000), wk =   0.0126984
        k(   57) = (   0.4000000   0.7171664   0.2298378), wk =   0.0126984
        k(   58) = (   0.4000000   0.7171664   0.4596756), wk =   0.0126984
        k(   59) = (   0.4000000   0.7171664   0.6895134), wk =   0.0126984
        k(   60) = (   0.4000000   0.7171664   0.9193512), wk =   0.0126984
        k(   61) = (  -0.2000000   0.0000000   0.2298378), wk =   0.0063492
        k(   62) = (  -0.2000000   0.0000000   0.4596756), wk =   0.0063492
        k(   63) = (  -0.2000000   0.0000000   0.6895134), wk =   0.0063492
        k(   64) = (  -0.2000000   0.0000000   0.9193512), wk =   0.0063492
        k(   65) = (  -0.2000000  -0.2390555   0.2298378), wk =   0.0126984
        k(   66) = (  -0.2000000  -0.2390555   0.4596756), wk =   0.0126984
        k(   67) = (  -0.2000000  -0.2390555   0.6895134), wk =   0.0126984
        k(   68) = (  -0.2000000  -0.2390555   0.9193512), wk =   0.0126984
        k(   69) = (  -0.2000000  -0.4781110   0.2298378), wk =   0.0126984
        k(   70) = (  -0.2000000  -0.4781110   0.4596756), wk =   0.0126984
        k(   71) = (  -0.2000000  -0.4781110   0.6895134), wk =   0.0126984
        k(   72) = (  -0.2000000  -0.4781110   0.9193512), wk =   0.0126984
        k(   73) = (  -0.2000000  -0.7171664   0.2298378), wk =   0.0126984
        k(   74) = (  -0.2000000  -0.7171664   0.4596756), wk =   0.0126984
        k(   75) = (  -0.2000000  -0.7171664   0.6895134), wk =   0.0126984
        k(   76) = (  -0.2000000  -0.7171664   0.9193512), wk =   0.0126984
        k(   77) = (  -0.4000000   0.0000000   0.2298378), wk =   0.0063492
        k(   78) = (  -0.4000000   0.0000000   0.4596756), wk =   0.0063492
        k(   79) = (  -0.4000000   0.0000000   0.6895134), wk =   0.0063492
        k(   80) = (  -0.4000000   0.0000000   0.9193512), wk =   0.0063492
        k(   81) = (  -0.4000000  -0.2390555   0.2298378), wk =   0.0126984
        k(   82) = (  -0.4000000  -0.2390555   0.4596756), wk =   0.0126984
        k(   83) = (  -0.4000000  -0.2390555   0.6895134), wk =   0.0126984
        k(   84) = (  -0.4000000  -0.2390555   0.9193512), wk =   0.0126984
        k(   85) = (  -0.4000000  -0.4781110   0.2298378), wk =   0.0126984
        k(   86) = (  -0.4000000  -0.4781110   0.4596756), wk =   0.0126984
        k(   87) = (  -0.4000000  -0.4781110   0.6895134), wk =   0.0126984
        k(   88) = (  -0.4000000  -0.4781110   0.9193512), wk =   0.0126984
        k(   89) = (  -0.4000000  -0.7171664   0.2298378), wk =   0.0126984
        k(   90) = (  -0.4000000  -0.7171664   0.4596756), wk =   0.0126984
        k(   91) = (  -0.4000000  -0.7171664   0.6895134), wk =   0.0126984
        k(   92) = (  -0.4000000  -0.7171664   0.9193512), wk =   0.0126984

                       cryst. coord.
        k(    1) = (   0.0000000   0.0000000   0.0000000), wk =   0.0031746
        k(    2) = (   0.0000000   0.0000000   0.1111111), wk =   0.0063492
        k(    3) = (   0.0000000   0.0000000   0.2222222), wk =   0.0063492
        k(    4) = (   0.0000000   0.0000000   0.3333333), wk =   0.0063492
        k(    5) = (   0.0000000   0.0000000   0.4444444), wk =   0.0063492
        k(    6) = (   0.0000000   0.1428571   0.0000000), wk =   0.0063492
        k(    7) = (   0.0000000   0.1428571   0.1111111), wk =   0.0126984
        k(    8) = (   0.0000000   0.1428571   0.2222222), wk =   0.0126984
        k(    9) = (   0.0000000   0.1428571   0.3333333), wk =   0.0126984
        k(   10) = (   0.0000000   0.1428571   0.4444444), wk =   0.0126984
        k(   11) = (   0.0000000   0.2857143   0.0000000), wk =   0.0063492
        k(   12) = (   0.0000000   0.2857143   0.1111111), wk =   0.0126984
        k(   13) = (   0.0000000   0.2857143   0.2222222), wk =   0.0126984
        k(   14) = (   0.0000000   0.2857143   0.3333333), wk =   0.0126984
        k(   15) = (   0.0000000   0.2857143   0.4444444), wk =   0.0126984
        k(   16) = (   0.0000000   0.4285714   0.0000000), wk =   0.0063492
        k(   17) = (   0.0000000   0.4285714   0.1111111), wk =   0.0126984
        k(   18) = (   0.0000000   0.4285714   0.2222222), wk =   0.0126984
        k(   19) = (   0.0000000   0.4285714   0.3333333), wk =   0.0126984
        k(   20) = (   0.0000000   0.4285714   0.4444444), wk =   0.0126984
        k(   21) = (   0.2000000   0.0000000   0.0000000), wk =   0.0063492
        k(   22) = (   0.2000000   0.0000000   0.1111111), wk =   0.0063492
        k(   23) = (   0.2000000   0.0000000   0.2222222), wk =   0.0063492
        k(   24) = (   0.2000000   0.0000000   0.3333333), wk =   0.0063492
        k(   25) = (   0.2000000   0.0000000   0.4444444), wk =   0.0063492
        k(   26) = (   0.2000000   0.1428571   0.0000000), wk =   0.0126984
        k(   27) = (   0.2000000   0.1428571   0.1111111), wk =   0.0126984
        k(   28) = (   0.2000000   0.1428571   0.2222222), wk =   0.0126984
        k(   29) = (   0.2000000   0.1428571   0.3333333), wk =   0.0126984
        k(   30) = (   0.2000000   0.1428571   0.4444444), wk =   0.0126984
        k(   31) = (   0.2000000   0.2857143   0.0000000), wk =   0.0126984
        k(   32) = (   0.2000000   0.2857143   0.1111111), wk =   0.0126984
        k(   33) = (   0.2000000   0.2857143   0.2222222), wk =   0.0126984
        k(   34) = (   0.2000000   0.2857143   0.3333333), wk =   0.0126984
        k(   35) = (   0.2000000   0.2857143   0.4444444), wk =   0.0126984
        k(   36) = (   0.2000000   0.4285714   0.0000000), wk =   0.0126984
        k(   37) = (   0.2000000   0.4285714   0.1111111), wk =   0.0126984
        k(   38) = (   0.2000000   0.4285714   0.2222222), wk =   0.0126984
        k(   39) = (   0.2000000   0.4285714   0.3333333), wk =   0.0126984
        k(   40) = (   0.2000000   0.4285714   0.4444444), wk =   0.0126984
        k(   41) = (   0.4000000   0.0000000   0.0000000), wk =   0.0063492
        k(   42) = (   0.4000000   0.0000000   0.1111111), wk =   0.0063492
        k(   43) = (   0.4000000   0.0000000   0.2222222), wk =   0.0063492
        k(   44) = (   0.4000000   0.0000000   0.3333333), wk =   0.0063492
        k(   45) = (   0.4000000   0.0000000   0.4444444), wk =   0.0063492
        k(   46) = (   0.4000000   0.1428571   0.0000000), wk =   0.0126984
        k(   47) = (   0.4000000   0.1428571   0.1111111), wk =   0.0126984
        k(   48) = (   0.4000000   0.1428571   0.2222222), wk =   0.0126984
        k(   49) = (   0.4000000   0.1428571   0.3333333), wk =   0.0126984
        k(   50) = (   0.4000000   0.1428571   0.4444444), wk =   0.0126984
        k(   51) = (   0.4000000   0.2857143   0.0000000), wk =   0.0126984
        k(   52) = (   0.4000000   0.2857143   0.1111111), wk =   0.0126984
        k(   53) = (   0.4000000   0.2857143   0.2222222), wk =   0.0126984
        k(   54) = (   0.4000000   0.2857143   0.3333333), wk =   0.0126984
        k(   55) = (   0.4000000   0.2857143   0.4444444), wk =   0.0126984
        k(   56) = (   0.4000000   0.4285714   0.0000000), wk =   0.0126984
        k(   57) = (   0.4000000   0.4285714   0.1111111), wk =   0.0126984
        k(   58) = (   0.4000000   0.4285714   0.2222222), wk =   0.0126984
        k(   59) = (   0.4000000   0.4285714   0.3333333), wk =   0.0126984
        k(   60) = (   0.4000000   0.4285714   0.4444444), wk =   0.0126984
        k(   61) = (  -0.2000000   0.0000000   0.1111111), wk =   0.0063492
        k(   62) = (  -0.2000000   0.0000000   0.2222222), wk =   0.0063492
        k(   63) = (  -0.2000000   0.0000000   0.3333333), wk =   0.0063492
        k(   64) = (  -0.2000000   0.0000000   0.4444444), wk =   0.0063492
        k(   65) = (  -0.2000000  -0.1428571   0.1111111), wk =   0.0126984
        k(   66) = (  -0.2000000  -0.1428571   0.2222222), wk =   0.0126984
        k(   67) = (  -0.2000000  -0.1428571   0.3333333), wk =   0.0126984
        k(   68) = (  -0.2000000  -0.1428571   0.4444444), wk =   0.0126984
        k(   69) = (  -0.2000000  -0.2857143   0.1111111), wk =   0.0126984
        k(   70) = (  -0.2000000  -0.2857143   0.2222222), wk =   0.0126984
        k(   71) = (  -0.2000000  -0.2857143   0.3333333), wk =   0.0126984
        k(   72) = (  -0.2000000  -0.2857143   0.4444444), wk =   0.0126984
        k(   73) = (  -0.2000000  -0.4285714   0.1111111), wk =   0.0126984
        k(   74) = (  -0.2000000  -0.4285714   0.2222222), wk =   0.0126984
        k(   75) = (  -0.2000000  -0.4285714   0.3333333), wk =   0.0126984
        k(   76) = (  -0.2000000  -0.4285714   0.4444444), wk =   0.0126984
        k(   77) = (  -0.4000000   0.0000000   0.1111111), wk =   0.0063492
        k(   78) = (  -0.4000000   0.0000000   0.2222222), wk =   0.0063492
        k(   79) = (  -0.4000000   0.0000000   0.3333333), wk =   0.0063492
        k(   80) = (  -0.4000000   0.0000000   0.4444444), wk =   0.0063492
        k(   81) = (  -0.4000000  -0.1428571   0.1111111), wk =   0.0126984
        k(   82) = (  -0.4000000  -0.1428571   0.2222222), wk =   0.0126984
        k(   83) = (  -0.4000000  -0.1428571   0.3333333), wk =   0.0126984
        k(   84) = (  -0.4000000  -0.1428571   0.4444444), wk =   0.0126984
        k(   85) = (  -0.4000000  -0.2857143   0.1111111), wk =   0.0126984
        k(   86) = (  -0.4000000  -0.2857143   0.2222222), wk =   0.0126984
        k(   87) = (  -0.4000000  -0.2857143   0.3333333), wk =   0.0126984
        k(   88) = (  -0.4000000  -0.2857143   0.4444444), wk =   0.0126984
        k(   89) = (  -0.4000000  -0.4285714   0.1111111), wk =   0.0126984
        k(   90) = (  -0.4000000  -0.4285714   0.2222222), wk =   0.0126984
        k(   91) = (  -0.4000000  -0.4285714   0.3333333), wk =   0.0126984
        k(   92) = (  -0.4000000  -0.4285714   0.4444444), wk =   0.0126984

     Dense  grid:  1252071 G-vectors     FFT dimensions: ( 216, 128, 100)

     Smooth grid:   282325 G-vectors     FFT dimensions: ( 125,  80,  60)

     Dynamical RAM for                 wfc:       5.83 MB

     Dynamical RAM for     wfc (w. buffer):    1078.54 MB

     Dynamical RAM for           str. fact:       6.37 MB

     Dynamical RAM for           local pot:       0.00 MB

     Dynamical RAM for          nlocal pot:      13.63 MB

     Dynamical RAM for                qrad:      10.54 MB

     Dynamical RAM for          rho,v,vnew:      20.94 MB

     Dynamical RAM for               rhoin:       6.98 MB

     Dynamical RAM for            rho*nmix:      50.95 MB

     Dynamical RAM for           G-vectors:       6.15 MB

     Dynamical RAM for          h,s,v(r/c):       3.09 MB

     Dynamical RAM for          <psi|beta>:       0.60 MB

     Dynamical RAM for                 psi:      11.66 MB

     Dynamical RAM for                hpsi:      11.66 MB

     Dynamical RAM for                spsi:      11.66 MB

     Dynamical RAM for      wfcinit/wfcrot:      14.16 MB

     Dynamical RAM for           addusdens:     323.20 MB

     Dynamical RAM for          addusforce:     371.09 MB

     Dynamical RAM for         addusstress:     322.40 MB

     Estimated static dynamical RAM per process >       1.19 GB

     Estimated max dynamical RAM per process >       1.55 GB

     Estimated total dynamical RAM >      18.57 GB

     Check: negative core charge=   -0.000003
     Generating pointlists ...
     new r_m :   0.0826 (alat units)  1.5968 (a.u.) for type    1
     new r_m :   0.0919 (alat units)  1.7772 (a.u.) for type    2
     new r_m :   0.0612 (alat units)  1.1844 (a.u.) for type    3
     new r_m :   0.0612 (alat units)  1.1844 (a.u.) for type    4

     Initial potential from superposition of free atoms

     starting charge  215.97252, renormalised to  216.00000
     Starting wfcs are  152 randomized atomic wfcs
     Checking if some PAW data can be deallocated... 
       PAW data deallocated on   10 nodes for type:  1
       PAW data deallocated on    4 nodes for type:  3

     total cpu time spent up to now is     1649.7 secs

     Self-consistent Calculation

     iteration #  1     ecut=   100.00 Ry     beta= 0.40
     Davidson diagonalization with overlap
     ethr =  1.00E-02,  avg # of iterations =  3.7

     negative rho (up, down):  0.000E+00 3.838E-05

     total cpu time spent up to now is     6560.1 secs

     total energy              =   -2380.63238354 Ry
     estimated scf accuracy    <       5.72355403 Ry

     total magnetization       =    16.00 Bohr mag/cell
     absolute magnetization    =    16.01 Bohr mag/cell

     iteration #  2     ecut=   100.00 Ry     beta= 0.40
     Davidson diagonalization with overlap
     ethr =  2.65E-03,  avg # of iterations =  2.0

     negative rho (up, down):  0.000E+00 1.474E-04

     total cpu time spent up to now is    11038.7 secs

     total energy              =   -2381.96751740 Ry
     estimated scf accuracy    <       0.49664812 Ry

     total magnetization       =    16.00 Bohr mag/cell
     absolute magnetization    =    16.01 Bohr mag/cell

     iteration #  3     ecut=   100.00 Ry     beta= 0.40
     Davidson diagonalization with overlap
     ethr =  2.30E-04,  avg # of iterations =  8.9

     negative rho (up, down):  0.000E+00 1.707E-04

     total cpu time spent up to now is    16275.8 secs

     total energy              =   -2381.98833472 Ry
     estimated scf accuracy    <       3.48944154 Ry

     total magnetization       =    16.08 Bohr mag/cell
     absolute magnetization    =    16.13 Bohr mag/cell

     iteration #  4     ecut=   100.00 Ry     beta= 0.40
     Davidson diagonalization with overlap
     ethr =  2.30E-04,  avg # of iterations =  2.0

     negative rho (up, down):  0.000E+00 3.072E-04

     total cpu time spent up to now is    20152.4 secs

     total energy              =   -2382.02990788 Ry
     estimated scf accuracy    <       1.30905076 Ry

     total magnetization       =    16.00 Bohr mag/cell
     absolute magnetization    =    16.06 Bohr mag/cell

     iteration #  5     ecut=   100.00 Ry     beta= 0.40
     Davidson diagonalization with overlap
     ethr =  2.30E-04,  avg # of iterations =  1.5

     negative rho (up, down):  0.000E+00 4.515E-04

     total cpu time spent up to now is    23847.1 secs

     total energy              =   -2381.99647289 Ry
     estimated scf accuracy    <       2.14220018 Ry

     total magnetization       =    16.00 Bohr mag/cell
     absolute magnetization    =    16.06 Bohr mag/cell

     iteration #  6     ecut=   100.00 Ry     beta= 0.40
     Davidson diagonalization with overlap
     ethr =  2.30E-04,  avg # of iterations =  2.0

     negative rho (up, down):  0.000E+00 4.641E-04

     total cpu time spent up to now is    27580.1 secs

     total energy              =   -2382.09175228 Ry
     estimated scf accuracy    <       2.33630126 Ry

     total magnetization       =    16.00 Bohr mag/cell
     absolute magnetization    =    16.08 Bohr mag/cell

     iteration #  7     ecut=   100.00 Ry     beta= 0.40
     Davidson diagonalization with overlap
     ethr =  2.30E-04,  avg # of iterations =  1.0

     negative rho (up, down):  0.000E+00 4.702E-04

     total cpu time spent up to now is    31048.1 secs

     total energy              =   -2382.13588516 Ry
     estimated scf accuracy    <       0.05494900 Ry

     total magnetization       =    16.00 Bohr mag/cell
     absolute magnetization    =    16.07 Bohr mag/cell

     iteration #  8     ecut=   100.00 Ry     beta= 0.40
     Davidson diagonalization with overlap
     c_bands:  1 eigenvalues not converged
     ethr =  2.54E-05,  avg # of iterations =  2.6

     negative rho (up, down):  0.000E+00 4.686E-04

     total cpu time spent up to now is    34691.5 secs

     total energy              =   -2382.14391982 Ry
     estimated scf accuracy    <       0.39286972 Ry

     total magnetization       =    16.00 Bohr mag/cell
     absolute magnetization    =    16.07 Bohr mag/cell

     iteration #  9     ecut=   100.00 Ry     beta= 0.40
     Davidson diagonalization with overlap
     ethr =  2.54E-05,  avg # of iterations =  1.4

     negative rho (up, down):  0.000E+00 4.679E-04

     total cpu time spent up to now is    38220.4 secs

     total energy              =   -2382.13344185 Ry
     estimated scf accuracy    <       0.46499430 Ry

     total magnetization       =    16.00 Bohr mag/cell
     absolute magnetization    =    16.07 Bohr mag/cell

     iteration # 10     ecut=   100.00 Ry     beta= 0.40
     Davidson diagonalization with overlap
     ethr =  2.54E-05,  avg # of iterations =  1.0

     negative rho (up, down):  0.000E+00 4.662E-04

     total cpu time spent up to now is    41724.2 secs

     total energy              =   -2382.13946853 Ry
     estimated scf accuracy    <       0.06267651 Ry

     total magnetization       =    16.00 Bohr mag/cell
     absolute magnetization    =    16.08 Bohr mag/cell

     iteration # 11     ecut=   100.00 Ry     beta= 0.40
     Davidson diagonalization with overlap
     ethr =  2.54E-05,  avg # of iterations =  1.0

     negative rho (up, down):  0.000E+00 4.608E-04

     total cpu time spent up to now is    45219.0 secs

     total energy              =   -2382.14167386 Ry
     estimated scf accuracy    <       0.04462738 Ry

     total magnetization       =    16.00 Bohr mag/cell
     absolute magnetization    =    16.08 Bohr mag/cell

     iteration # 12     ecut=   100.00 Ry     beta= 0.40
     Davidson diagonalization with overlap
     ethr =  2.07E-05,  avg # of iterations =  1.0

     negative rho (up, down):  0.000E+00 4.576E-04

     total cpu time spent up to now is    48714.0 secs

     total energy              =   -2382.14345213 Ry
     estimated scf accuracy    <       0.05444304 Ry

     total magnetization       =    16.00 Bohr mag/cell
     absolute magnetization    =    16.08 Bohr mag/cell

     iteration # 13     ecut=   100.00 Ry     beta= 0.40
     Davidson diagonalization with overlap
     ethr =  2.07E-05,  avg # of iterations =  1.0

     negative rho (up, down):  0.000E+00 4.554E-04

     total cpu time spent up to now is    52216.6 secs

     total energy              =   -2382.14464551 Ry
     estimated scf accuracy    <       0.07899752 Ry

     total magnetization       =    16.00 Bohr mag/cell
     absolute magnetization    =    16.08 Bohr mag/cell

     iteration # 14     ecut=   100.00 Ry     beta= 0.40
     Davidson diagonalization with overlap
     ethr =  2.07E-05,  avg # of iterations =  1.0

     negative rho (up, down):  0.000E+00 4.558E-04

     total cpu time spent up to now is    55745.2 secs

     total energy              =   -2382.14480284 Ry
     estimated scf accuracy    <       0.07333811 Ry

     total magnetization       =    16.00 Bohr mag/cell
     absolute magnetization    =    16.09 Bohr mag/cell

     iteration # 15     ecut=   100.00 Ry     beta= 0.40
     Davidson diagonalization with overlap
     ethr =  2.07E-05,  avg # of iterations =  1.0

     negative rho (up, down):  0.000E+00 4.353E-04

     total cpu time spent up to now is    59265.4 secs

     total energy              =   -2382.14976942 Ry
     estimated scf accuracy    <       0.07179550 Ry

     total magnetization       =    16.00 Bohr mag/cell
     absolute magnetization    =    16.09 Bohr mag/cell

     iteration # 16     ecut=   100.00 Ry     beta= 0.40
     Davidson diagonalization with overlap
     ethr =  2.07E-05,  avg # of iterations =  2.0

     negative rho (up, down):  0.000E+00 4.382E-04

     total cpu time spent up to now is    63016.4 secs

     total energy              =   -2382.15245966 Ry
     estimated scf accuracy    <       0.02468604 Ry

     total magnetization       =    16.00 Bohr mag/cell
     absolute magnetization    =    16.09 Bohr mag/cell

     iteration # 17     ecut=   100.00 Ry     beta= 0.40
     Davidson diagonalization with overlap
     ethr =  1.14E-05,  avg # of iterations =  1.4

     negative rho (up, down):  0.000E+00 4.407E-04

     total cpu time spent up to now is    66585.4 secs

     total energy              =   -2382.15219199 Ry
     estimated scf accuracy    <       0.02085121 Ry

     total magnetization       =    16.00 Bohr mag/cell
     absolute magnetization    =    16.09 Bohr mag/cell

     iteration # 18     ecut=   100.00 Ry     beta= 0.40
     Davidson diagonalization with overlap
     ethr =  9.65E-06,  avg # of iterations =  1.7

     negative rho (up, down):  0.000E+00 4.528E-04

     total cpu time spent up to now is    70191.5 secs

     total energy              =   -2382.15170578 Ry
     estimated scf accuracy    <       0.00493928 Ry

     total magnetization       =    16.00 Bohr mag/cell
     absolute magnetization    =    16.09 Bohr mag/cell

     iteration # 19     ecut=   100.00 Ry     beta= 0.40
     Davidson diagonalization with overlap
     c_bands:  1 eigenvalues not converged
     c_bands:  1 eigenvalues not converged
     c_bands:  1 eigenvalues not converged
     c_bands:  1 eigenvalues not converged
     c_bands:  1 eigenvalues not converged
     c_bands:  1 eigenvalues not converged
     c_bands:  1 eigenvalues not converged
     c_bands:  1 eigenvalues not converged
     c_bands:  1 eigenvalues not converged
     c_bands:  1 eigenvalues not converged
     c_bands:  2 eigenvalues not converged
     c_bands:  1 eigenvalues not converged
     c_bands:  1 eigenvalues not converged
     c_bands:  1 eigenvalues not converged
     c_bands:  2 eigenvalues not converged
     c_bands:  1 eigenvalues not converged
     c_bands:  1 eigenvalues not converged
     c_bands:  2 eigenvalues not converged
     ethr =  2.29E-06,  avg # of iterations = 10.7

     negative rho (up, down):  0.000E+00 4.551E-04

     total cpu time spent up to now is    74928.4 secs

     total energy              =   -2382.15399408 Ry
     estimated scf accuracy    <       0.02995694 Ry

     total magnetization       =    16.00 Bohr mag/cell
     absolute magnetization    =    16.09 Bohr mag/cell

     iteration # 20     ecut=   100.00 Ry     beta= 0.40
     Davidson diagonalization with overlap
     ethr =  2.29E-06,  avg # of iterations =  1.3

     negative rho (up, down):  0.000E+00 4.544E-04

     total cpu time spent up to now is    78481.3 secs

     total energy              =   -2382.15323721 Ry
     estimated scf accuracy    <       0.02760422 Ry

     total magnetization       =    16.00 Bohr mag/cell
     absolute magnetization    =    16.09 Bohr mag/cell

     iteration # 21     ecut=   100.00 Ry     beta= 0.40
     Davidson diagonalization with overlap
     ethr =  2.29E-06,  avg # of iterations =  1.6

     negative rho (up, down):  0.000E+00 4.544E-04

     total cpu time spent up to now is    82122.8 secs

     total energy              =   -2382.15294978 Ry
     estimated scf accuracy    <       0.01271193 Ry

     total magnetization       =    16.00 Bohr mag/cell
     absolute magnetization    =    16.09 Bohr mag/cell

     iteration # 22     ecut=   100.00 Ry     beta= 0.40
     Davidson diagonalization with overlap
     ethr =  2.29E-06,  avg # of iterations =  1.0

     negative rho (up, down):  0.000E+00 4.563E-04

     total cpu time spent up to now is    85562.7 secs

     total energy              =   -2382.15323338 Ry
     estimated scf accuracy    <       0.00054028 Ry

     total magnetization       =    16.00 Bohr mag/cell
     absolute magnetization    =    16.09 Bohr mag/cell

     iteration # 23     ecut=   100.00 Ry     beta= 0.40
     Davidson diagonalization with overlap
     ethr =  2.50E-07,  avg # of iterations =  1.9

     negative rho (up, down):  0.000E+00 4.612E-04

     total cpu time spent up to now is    89202.5 secs

     total energy              =   -2382.15302194 Ry
     estimated scf accuracy    <       0.00416254 Ry

     total magnetization       =    16.00 Bohr mag/cell
     absolute magnetization    =    16.09 Bohr mag/cell

     iteration # 24     ecut=   100.00 Ry     beta= 0.40
     Davidson diagonalization with overlap
     ethr =  2.50E-07,  avg # of iterations =  2.0

     negative rho (up, down):  0.000E+00 4.609E-04

     total cpu time spent up to now is    93094.8 secs

     total energy              =   -2382.15333248 Ry
     estimated scf accuracy    <       0.00515862 Ry

     total magnetization       =    16.00 Bohr mag/cell
     absolute magnetization    =    16.09 Bohr mag/cell

     iteration # 25     ecut=   100.00 Ry     beta= 0.40
     Davidson diagonalization with overlap
     ethr =  2.50E-07,  avg # of iterations =  1.1

     negative rho (up, down):  0.000E+00 4.612E-04

     total cpu time spent up to now is    96632.1 secs

     total energy              =   -2382.15336029 Ry
     estimated scf accuracy    <       0.00092790 Ry

     total magnetization       =    16.00 Bohr mag/cell
     absolute magnetization    =    16.09 Bohr mag/cell

     iteration # 26     ecut=   100.00 Ry     beta= 0.40
     Davidson diagonalization with overlap
     ethr =  2.50E-07,  avg # of iterations =  1.0

     negative rho (up, down):  0.000E+00 4.622E-04

     total cpu time spent up to now is   100165.0 secs

     total energy              =   -2382.15339139 Ry
     estimated scf accuracy    <       0.00023133 Ry

     total magnetization       =    16.00 Bohr mag/cell
     absolute magnetization    =    16.09 Bohr mag/cell

     iteration # 27     ecut=   100.00 Ry     beta= 0.40
     Davidson diagonalization with overlap
     ethr =  1.07E-07,  avg # of iterations =  1.0

     negative rho (up, down):  0.000E+00 4.674E-04

     total cpu time spent up to now is   103696.1 secs

     total energy              =   -2382.15329602 Ry
     estimated scf accuracy    <       0.00039296 Ry

     total magnetization       =    16.00 Bohr mag/cell
     absolute magnetization    =    16.09 Bohr mag/cell

     iteration # 28     ecut=   100.00 Ry     beta= 0.40
     Davidson diagonalization with overlap
     ethr =  1.07E-07,  avg # of iterations =  2.0

     negative rho (up, down):  0.000E+00 4.786E-04

     total cpu time spent up to now is   107693.6 secs

     total energy              =   -2382.15268730 Ry
     estimated scf accuracy    <       0.00033760 Ry

     total magnetization       =    16.00 Bohr mag/cell
     absolute magnetization    =    16.08 Bohr mag/cell

     iteration # 29     ecut=   100.00 Ry     beta= 0.40
     Davidson diagonalization with overlap
     ethr =  1.07E-07,  avg # of iterations =  3.2

     negative rho (up, down):  0.000E+00 4.784E-04

     total cpu time spent up to now is   112355.6 secs

     total energy              =   -2382.15366140 Ry
     estimated scf accuracy    <       0.00001888 Ry

     total magnetization       =    16.00 Bohr mag/cell
     absolute magnetization    =    16.08 Bohr mag/cell

     iteration # 30     ecut=   100.00 Ry     beta= 0.40
     Davidson diagonalization with overlap
     ethr =  8.74E-09,  avg # of iterations =  3.2

     negative rho (up, down):  0.000E+00 4.869E-04

     total cpu time spent up to now is   116378.5 secs

     total energy              =   -2382.15314588 Ry
     estimated scf accuracy    <       0.00000981 Ry

     total magnetization       =    16.00 Bohr mag/cell
     absolute magnetization    =    16.08 Bohr mag/cell

     iteration # 31     ecut=   100.00 Ry     beta= 0.40
     Davidson diagonalization with overlap
     ethr =  4.54E-09,  avg # of iterations =  5.3

     negative rho (up, down):  0.000E+00 4.853E-04

     total cpu time spent up to now is   122297.5 secs

     total energy              =   -2382.15369007 Ry
     estimated scf accuracy    <       0.00002476 Ry

     total magnetization       =    16.00 Bohr mag/cell
     absolute magnetization    =    16.07 Bohr mag/cell

     iteration # 32     ecut=   100.00 Ry     beta= 0.40
     Davidson diagonalization with overlap
     ethr =  4.54E-09,  avg # of iterations =  2.1

     negative rho (up, down):  0.000E+00 4.856E-04

     total cpu time spent up to now is   126462.6 secs

     total energy              =   -2382.15371354 Ry
     estimated scf accuracy    <       0.00000566 Ry

     total magnetization       =    16.00 Bohr mag/cell
     absolute magnetization    =    16.07 Bohr mag/cell

     iteration # 33     ecut=   100.00 Ry     beta= 0.40
     Davidson diagonalization with overlap
     ethr =  2.62E-09,  avg # of iterations =  2.0

     negative rho (up, down):  0.000E+00 4.844E-04

     total cpu time spent up to now is   130307.7 secs

     total energy              =   -2382.15372052 Ry
     estimated scf accuracy    <       0.00000600 Ry

     total magnetization       =    16.00 Bohr mag/cell
     absolute magnetization    =    16.07 Bohr mag/cell

     iteration # 34     ecut=   100.00 Ry     beta= 0.40
     Davidson diagonalization with overlap
     ethr =  2.62E-09,  avg # of iterations =  2.3

     negative rho (up, down):  0.000E+00 4.843E-04

     total cpu time spent up to now is   134442.6 secs

     total energy              =   -2382.15372781 Ry
     estimated scf accuracy    <       0.00000117 Ry

     total magnetization       =    16.00 Bohr mag/cell
     absolute magnetization    =    16.07 Bohr mag/cell

     iteration # 35     ecut=   100.00 Ry     beta= 0.40
     Davidson diagonalization with overlap
     ethr =  5.42E-10,  avg # of iterations =  2.0

     negative rho (up, down):  0.000E+00 4.846E-04

     total cpu time spent up to now is   138291.6 secs

     total energy              =   -2382.15372802 Ry
     estimated scf accuracy    <       0.00000099 Ry

     total magnetization       =    16.00 Bohr mag/cell
     absolute magnetization    =    16.07 Bohr mag/cell

     iteration # 36     ecut=   100.00 Ry     beta= 0.40
     Davidson diagonalization with overlap
     ethr =  4.59E-10,  avg # of iterations =  2.0

     negative rho (up, down):  0.000E+00 4.847E-04

     total cpu time spent up to now is   142281.2 secs

     total energy              =   -2382.15372834 Ry
     estimated scf accuracy    <       0.00000119 Ry

     total magnetization       =    16.00 Bohr mag/cell
     absolute magnetization    =    16.07 Bohr mag/cell

     iteration # 37     ecut=   100.00 Ry     beta= 0.40
     Davidson diagonalization with overlap
     ethr =  4.59E-10,  avg # of iterations =  2.1

     negative rho (up, down):  0.000E+00 4.849E-04

     total cpu time spent up to now is   146310.5 secs

     total energy              =   -2382.15372881 Ry
     estimated scf accuracy    <       0.00000175 Ry

     total magnetization       =    16.00 Bohr mag/cell
     absolute magnetization    =    16.07 Bohr mag/cell

     iteration # 38     ecut=   100.00 Ry     beta= 0.40
     Davidson diagonalization with overlap
     ethr =  4.59E-10,  avg # of iterations =  2.4

     negative rho (up, down):  0.000E+00 4.848E-04

     total cpu time spent up to now is   150409.3 secs

     total energy              =   -2382.15372929 Ry
     estimated scf accuracy    <       0.00000030 Ry

     total magnetization       =    16.00 Bohr mag/cell
     absolute magnetization    =    16.07 Bohr mag/cell

     iteration # 39     ecut=   100.00 Ry     beta= 0.40
     Davidson diagonalization with overlap
     ethr =  1.40E-10,  avg # of iterations =  4.0

     negative rho (up, down):  0.000E+00 4.848E-04

     total cpu time spent up to now is   155155.9 secs

     total energy              =   -2382.15373056 Ry
     estimated scf accuracy    <       0.00000002 Ry

     total magnetization       =    16.00 Bohr mag/cell
     absolute magnetization    =    16.07 Bohr mag/cell

     iteration # 40     ecut=   100.00 Ry     beta= 0.40
     Davidson diagonalization with overlap
     ethr =  1.13E-11,  avg # of iterations =  4.1

     negative rho (up, down):  0.000E+00 4.849E-04

     total cpu time spent up to now is   160333.4 secs

     total energy              =   -2382.15373066 Ry
     estimated scf accuracy    <       0.00000002 Ry

     total magnetization       =    16.00 Bohr mag/cell
     absolute magnetization    =    16.07 Bohr mag/cell

     iteration # 41     ecut=   100.00 Ry     beta= 0.40
     Davidson diagonalization with overlap
     ethr =  1.06E-11,  avg # of iterations =  2.0

     negative rho (up, down):  0.000E+00 4.848E-04

     total cpu time spent up to now is   164136.7 secs

     total energy              =   -2382.15373067 Ry
     estimated scf accuracy    <       0.00000001 Ry

     total magnetization       =    16.00 Bohr mag/cell
     absolute magnetization    =    16.07 Bohr mag/cell

     iteration # 42     ecut=   100.00 Ry     beta= 0.40
     Davidson diagonalization with overlap
     ethr =  4.67E-12,  avg # of iterations =  2.3

     negative rho (up, down):  0.000E+00 4.848E-04

     total cpu time spent up to now is   168380.1 secs

     total energy              =   -2382.15373070 Ry
     estimated scf accuracy    <          4.9E-09 Ry

     total magnetization       =    16.00 Bohr mag/cell
     absolute magnetization    =    16.07 Bohr mag/cell

     iteration # 43     ecut=   100.00 Ry     beta= 0.40
     Davidson diagonalization with overlap
     ethr =  2.25E-12,  avg # of iterations =  2.0

     negative rho (up, down):  0.000E+00 4.849E-04

     Magnetic moment per site:
     atom:    1    charge:    7.9548    magn:    0.0001    constr:    0.0000
     atom:    2    charge:    7.9548    magn:    0.0001    constr:    0.0000
     atom:    3    charge:    7.9548    magn:    0.0001    constr:    0.0000
     atom:    4    charge:    7.9548    magn:    0.0001    constr:    0.0000
     atom:    5    charge:   13.3119    magn:    3.3323    constr:    0.0000
     atom:    6    charge:   13.3119    magn:    3.3323    constr:    0.0000
     atom:    7    charge:   13.3119    magn:    3.3323    constr:    0.0000
     atom:    8    charge:   13.3119    magn:    3.3323    constr:    0.0000
     atom:    9    charge:    0.8555    magn:    0.0064    constr:    0.0000
     atom:   10    charge:    0.8555    magn:    0.0064    constr:    0.0000
     atom:   11    charge:    0.8555    magn:    0.0064    constr:    0.0000
     atom:   12    charge:    0.8555    magn:    0.0064    constr:    0.0000
     atom:   13    charge:    4.2205    magn:    0.0320    constr:    0.0000
     atom:   14    charge:    4.2205    magn:    0.0320    constr:    0.0000
     atom:   15    charge:    4.2205    magn:    0.0320    constr:    0.0000
     atom:   16    charge:    4.2206    magn:    0.0320    constr:    0.0000
     atom:   17    charge:    4.2409    magn:    0.0442    constr:    0.0000
     atom:   18    charge:    4.2409    magn:    0.0442    constr:    0.0000
     atom:   19    charge:    4.2409    magn:    0.0442    constr:    0.0000
     atom:   20    charge:    4.2410    magn:    0.0442    constr:    0.0000
     atom:   21    charge:    4.2317    magn:    0.0750    constr:    0.0000
     atom:   22    charge:    4.2317    magn:    0.0750    constr:    0.0000
     atom:   23    charge:    4.2317    magn:    0.0750    constr:    0.0000
     atom:   24    charge:    4.2317    magn:    0.0750    constr:    0.0000
     atom:   25    charge:    4.2317    magn:    0.0750    constr:    0.0000
     atom:   26    charge:    4.2317    magn:    0.0750    constr:    0.0000
     atom:   27    charge:    4.2317    magn:    0.0750    constr:    0.0000
     atom:   28    charge:    4.2317    magn:    0.0750    constr:    0.0000

     total cpu time spent up to now is   172209.2 secs

     End of self-consistent calculation

 ------ SPIN UP ------------


          k = 0.0000 0.0000 0.0000 ( 35257 PWs)   bands (ev):

   -80.4959 -80.4956 -80.4943 -80.4939 -47.4008 -47.3998 -47.3993 -47.3982
   -46.4375 -46.4371 -46.4359 -46.4354 -45.8209 -45.8202 -45.8193 -45.8185
   -42.5181 -42.5181 -42.5080 -42.5080 -14.9289 -14.8938 -14.6062 -14.5997
   -14.5757 -14.5459 -14.5444 -14.5422 -14.5389 -14.4745 -14.4741 -14.4445
   -14.4443 -14.3912 -14.0028 -13.9110 -11.7515 -11.6785 -11.6751 -11.6666
   -11.6526 -11.6286 -11.5812 -11.5150 -11.4512 -11.4376 -11.4320 -11.3981
    -1.7039  -1.2626  -1.0705  -1.0450  -0.2076   0.2453   0.2996   0.4511
     0.5888   0.7143   1.0414   1.0605   1.0713   1.1141   1.1488   1.4827
     2.2564   2.4438   2.7394   2.8384   2.9457   3.0702   3.1431   3.2088
     3.2563   3.3300   3.3361   3.6391   3.6943   3.7608   3.8628   3.9228
     3.9522   3.9811   4.0148   4.0892   4.2414   4.2919   4.5351   4.5696
     4.5982   4.7142   4.8408   5.1557   5.1725   5.3025   5.5544   5.7544
     5.9378   5.9942   6.0431   6.2800   6.3347   6.3708   6.3773   6.4175
     6.5960   6.8074   7.0839   7.0882   7.1510   7.2274   7.2376   7.5717
     7.6088   7.6485   7.7853   7.8376  11.0508  13.0624  13.2500  13.7282
    14.2174  14.4855  14.9033  15.6016  15.7771  15.9564  16.0419  16.0855
    16.1419  16.2339

     occupation numbers 
     1.0000   1.0000   1.0000   1.0000   1.0000   1.0000   1.0000   1.0000
     1.0000   1.0000   1.0000   1.0000   1.0000   1.0000   1.0000   1.0000
     1.0000   1.0000   1.0000   1.0000   1.0000   1.0000   1.0000   1.0000
     1.0000   1.0000   1.0000   1.0000   1.0000   1.0000   1.0000   1.0000
     1.0000   1.0000   1.0000   1.0000   1.0000   1.0000   1.0000   1.0000
     1.0000   1.0000   1.0000   1.0000   1.0000   1.0000   1.0000   1.0000
     1.0000   1.0000   1.0000   1.0000   1.0000   1.0000   1.0000   1.0000
     1.0000   1.0000   1.0000   1.0000   1.0000   1.0000   1.0000   1.0000
     1.0000   1.0000   1.0000   1.0000   1.0000   1.0000   1.0000   1.0000
     1.0000   1.0000   1.0000   1.0000   1.0000   1.0000   1.0000   1.0000
     1.0000   1.0000   1.0000   1.0000   1.0000   1.0000   1.0000   1.0000
     1.0000   1.0000   1.0000   1.0000   1.0000   1.0000   1.0000   1.0000
     1.0000   1.0000   1.0000   1.0000   1.0000   1.0000   1.0000   1.0000
     1.0000   1.0000   1.0000   1.0000   1.0000   1.0000   1.0000   1.0000
     1.0000   1.0000   1.0000   1.0000   0.0000   0.0000   0.0000   0.0000
     0.0000   0.0000   0.0000   0.0000   0.0000   0.0000   0.0000   0.0000
     0.0000   0.0000

          k = 0.0000 0.0000 0.2298 ( 35253 PWs)   bands (ev):

   -80.4959 -80.4956 -80.4943 -80.4939 -47.4008 -47.3999 -47.3992 -47.3983
   -46.4375 -46.4371 -46.4359 -46.4354 -45.8209 -45.8202 -45.8193 -45.8185
   -42.5181 -42.5181 -42.5080 -42.5080 -14.9230 -14.8885 -14.6648 -14.6278
   -14.5868 -14.5580 -14.5459 -14.5425 -14.4746 -14.4743 -14.4490 -14.4445
   -14.4444 -14.3299 -14.0144 -13.9283 -11.7442 -11.6826 -11.6815 -11.6750
   -11.6669 -11.6249 -11.5838 -11.5217 -11.4612 -11.4436 -11.4196 -11.4098
    -1.6806  -1.2622  -1.0823  -1.0264  -0.1418   0.2661   0.3607   0.5076
     0.5903   0.7323   1.0546   1.0583   1.0796   1.0982   1.1166   1.4639
     2.2571   2.4329   2.7427   2.7912   2.9580   3.0023   3.1394   3.1427
     3.1875   3.2981   3.3903   3.5946   3.6778   3.6915   3.8646   3.8751
     3.8859   3.9459   4.1292   4.2054   4.3001   4.3105   4.4726   4.5542
     4.5864   4.7535   4.8789   5.1709   5.1779   5.3314   5.5448   5.7321
     5.9272   5.9980   6.0207   6.2805   6.3211   6.3572   6.3577   6.3715
     6.6334   6.8266   7.1189   7.1230   7.1577   7.2420   7.2490   7.5469
     7.5880   7.6161   7.7940   7.8297  11.2027  13.1034  13.3507  13.7220
    14.2484  14.4074  15.0648  15.2826  15.7038  15.7604  15.7962  15.9109
    16.2198  16.3038

     occupation numbers 
     1.0000   1.0000   1.0000   1.0000   1.0000   1.0000   1.0000   1.0000
     1.0000   1.0000   1.0000   1.0000   1.0000   1.0000   1.0000   1.0000
     1.0000   1.0000   1.0000   1.0000   1.0000   1.0000   1.0000   1.0000
     1.0000   1.0000   1.0000   1.0000   1.0000   1.0000   1.0000   1.0000
     1.0000   1.0000   1.0000   1.0000   1.0000   1.0000   1.0000   1.0000
     1.0000   1.0000   1.0000   1.0000   1.0000   1.0000   1.0000   1.0000
     1.0000   1.0000   1.0000   1.0000   1.0000   1.0000   1.0000   1.0000
     1.0000   1.0000   1.0000   1.0000   1.0000   1.0000   1.0000   1.0000
     1.0000   1.0000   1.0000   1.0000   1.0000   1.0000   1.0000   1.0000
     1.0000   1.0000   1.0000   1.0000   1.0000   1.0000   1.0000   1.0000
     1.0000   1.0000   1.0000   1.0000   1.0000   1.0000   1.0000   1.0000
     1.0000   1.0000   1.0000   1.0000   1.0000   1.0000   1.0000   1.0000
     1.0000   1.0000   1.0000   1.0000   1.0000   1.0000   1.0000   1.0000
     1.0000   1.0000   1.0000   1.0000   1.0000   1.0000   1.0000   1.0000
     1.0000   1.0000   1.0000   1.0000   0.0000   0.0000   0.0000   0.0000
     0.0000   0.0000   0.0000   0.0000   0.0000   0.0000   0.0000   0.0000
     0.0000   0.0000

          k = 0.0000 0.0000 0.4597 ( 35284 PWs)   bands (ev):

   -80.4959 -80.4956 -80.4943 -80.4939 -47.4007 -47.3999 -47.3992 -47.3983
   -46.4375 -46.4371 -46.4359 -46.4354 -45.8209 -45.8202 -45.8193 -45.8186
   -42.5181 -42.5181 -42.5080 -42.5080 -14.9180 -14.8851 -14.7044 -14.6733
   -14.5827 -14.5612 -14.5460 -14.5432 -14.4749 -14.4746 -14.4449 -14.4446
   -14.3364 -14.2415 -14.0405 -13.9687 -11.7233 -11.7154 -11.7079 -11.6913
   -11.6651 -11.6191 -11.5917 -11.5409 -11.5193 -11.4529 -11.4124 -11.3953
    -1.6132  -1.2547  -1.1069  -1.0192   0.0602   0.3378   0.5071   0.6005
     0.6542   0.7773   1.0294   1.0477   1.0590   1.1100   1.1281   1.4061
     2.2548   2.4047   2.6766   2.7518   2.8552   2.9786   3.0222   3.0366
     3.1269   3.2100   3.4127   3.5599   3.6059   3.6142   3.6261   3.7968
     3.8728   3.8947   4.2786   4.2967   4.3652   4.4582   4.4706   4.5533
     4.6116   4.8182   4.9052   5.1614   5.2438   5.4109   5.5129   5.6974
     5.9121   5.9700   6.0076   6.2060   6.2707   6.2738   6.3288   6.3970
     6.7336   6.8900   7.1639   7.1769   7.1965   7.2733   7.3009   7.4739
     7.5257   7.5549   7.8005   7.8100  11.6050  13.2154  13.5684  13.7484
    14.3408  14.3522  14.7788  15.2776  15.4264  15.4799  15.5568  15.7072
    16.0324  16.2206

     occupation numbers 
     1.0000   1.0000   1.0000   1.0000   1.0000   1.0000   1.0000   1.0000
     1.0000   1.0000   1.0000   1.0000   1.0000   1.0000   1.0000   1.0000
     1.0000   1.0000   1.0000   1.0000   1.0000   1.0000   1.0000   1.0000
     1.0000   1.0000   1.0000   1.0000   1.0000   1.0000   1.0000   1.0000
     1.0000   1.0000   1.0000   1.0000   1.0000   1.0000   1.0000   1.0000
     1.0000   1.0000   1.0000   1.0000   1.0000   1.0000   1.0000   1.0000
     1.0000   1.0000   1.0000   1.0000   1.0000   1.0000   1.0000   1.0000
     1.0000   1.0000   1.0000   1.0000   1.0000   1.0000   1.0000   1.0000
     1.0000   1.0000   1.0000   1.0000   1.0000   1.0000   1.0000   1.0000
     1.0000   1.0000   1.0000   1.0000   1.0000   1.0000   1.0000   1.0000
     1.0000   1.0000   1.0000   1.0000   1.0000   1.0000   1.0000   1.0000
     1.0000   1.0000   1.0000   1.0000   1.0000   1.0000   1.0000   1.0000
     1.0000   1.0000   1.0000   1.0000   1.0000   1.0000   1.0000   1.0000
     1.0000   1.0000   1.0000   1.0000   1.0000   1.0000   1.0000   1.0000
     1.0000   1.0000   1.0000   1.0000   0.0000   0.0000   0.0000   0.0000
     0.0000   0.0000   0.0000   0.0000   0.0000   0.0000   0.0000   0.0000
     0.0000   0.0000

          k = 0.0000 0.0000 0.6895 ( 35308 PWs)   bands (ev):

   -80.4959 -80.4956 -80.4943 -80.4939 -47.4006 -47.4000 -47.3990 -47.3984
   -46.4375 -46.4371 -46.4359 -46.4354 -45.8208 -45.8203 -45.8192 -45.8186
   -42.5181 -42.5180 -42.5080 -42.5080 -14.9286 -14.9030 -14.6890 -14.6767
   -14.5722 -14.5543 -14.5459 -14.5441 -14.4751 -14.4749 -14.4451 -14.4449
   -14.2667 -14.2086 -14.0480 -13.9943 -11.7467 -11.7459 -11.7073 -11.6919
   -11.6500 -11.6376 -11.6047 -11.5701 -11.5626 -11.4904 -11.3910 -11.3756
    -1.5092  -1.2297  -1.1603  -1.0582   0.3678   0.4645   0.6321   0.6323
     0.8216   0.8291   0.9119   0.9781   1.0787   1.2371   1.2556   1.3155
     2.2303   2.3845   2.5178   2.6684   2.7719   2.8290   2.9680   2.9888
     3.0474   3.1073   3.1404   3.4681   3.5605   3.5833   3.6494   3.7024
     3.8348   3.8934   4.1779   4.1839   4.5228   4.6038   4.6225   4.6797
     4.6834   4.8790   4.9507   5.1301   5.2418   5.4160   5.5520   5.7423
     5.9083   5.9177   6.0246   6.0970   6.1765   6.1998   6.3366   6.4137
     6.8761   7.0011   7.1853   7.2021   7.2574   7.2914   7.3579   7.3825
     7.4245   7.5099   7.7897   7.7954  12.1448  13.3919  13.5212  14.0080
    14.3027  14.3670  14.5889  15.0662  15.0671  15.4255  15.4680  15.6164
    15.7717  16.1898

     occupation numbers 
     1.0000   1.0000   1.0000   1.0000   1.0000   1.0000   1.0000   1.0000
     1.0000   1.0000   1.0000   1.0000   1.0000   1.0000   1.0000   1.0000
     1.0000   1.0000   1.0000   1.0000   1.0000   1.0000   1.0000   1.0000
     1.0000   1.0000   1.0000   1.0000   1.0000   1.0000   1.0000   1.0000
     1.0000   1.0000   1.0000   1.0000   1.0000   1.0000   1.0000   1.0000
     1.0000   1.0000   1.0000   1.0000   1.0000   1.0000   1.0000   1.0000
     1.0000   1.0000   1.0000   1.0000   1.0000   1.0000   1.0000   1.0000
     1.0000   1.0000   1.0000   1.0000   1.0000   1.0000   1.0000   1.0000
     1.0000   1.0000   1.0000   1.0000   1.0000   1.0000   1.0000   1.0000
     1.0000   1.0000   1.0000   1.0000   1.0000   1.0000   1.0000   1.0000
     1.0000   1.0000   1.0000   1.0000   1.0000   1.0000   1.0000   1.0000
     1.0000   1.0000   1.0000   1.0000   1.0000   1.0000   1.0000   1.0000
     1.0000   1.0000   1.0000   1.0000   1.0000   1.0000   1.0000   1.0000
     1.0000   1.0000   1.0000   1.0000   1.0000   1.0000   1.0000   1.0000
     1.0000   1.0000   1.0000   1.0000   0.0000   0.0000   0.0000   0.0000
     0.0000   0.0000   0.0000   0.0000   0.0000   0.0000   0.0000   0.0000
     0.0000   0.0000

          k = 0.0000 0.0000 0.9194 ( 35336 PWs)   bands (ev):

   -80.4959 -80.4956 -80.4943 -80.4939 -47.4005 -47.4001 -47.3989 -47.3985
   -46.4375 -46.4371 -46.4359 -46.4354 -45.8208 -45.8203 -45.8192 -45.8187
   -42.5181 -42.5180 -42.5080 -42.5080 -14.9368 -14.9274 -14.6626 -14.6608
   -14.5535 -14.5459 -14.5457 -14.5447 -14.4753 -14.4752 -14.4452 -14.4451
   -14.2562 -14.2379 -14.0169 -13.9954 -11.7684 -11.7654 -11.7113 -11.6875
   -11.6554 -11.6306 -11.6241 -11.6038 -11.5525 -11.5255 -11.3740 -11.3680
    -1.3825  -1.2561  -1.1845  -1.1236   0.5776   0.6542   0.6867   0.6959
     0.7930   0.8353   0.8980   0.9632   1.1304   1.2145   1.3959   1.4092
     2.2026   2.3078   2.4079   2.5089   2.6907   2.7368   2.8205   2.8993
     3.0000   3.0403   3.1910   3.3104   3.5738   3.5788   3.6415   3.6437
     3.9088   3.9520   4.0477   4.0522   4.6059   4.6495   4.6700   4.7094
     4.9106   4.9658   5.0630   5.0717   5.1494   5.2904   5.6768   5.7782
     5.9307   5.9531   6.0134   6.0532   6.0763   6.1015   6.3684   6.4001
     7.0413   7.1434   7.2030   7.2085   7.2148   7.2848   7.2894   7.2919
     7.4494   7.4863   7.7806   7.7852  12.7145  13.2161  13.6313  13.8848
    14.3998  14.4061  14.6551  14.8181  15.0377  15.3253  15.4206  15.5051
    15.7143  15.9129

     occupation numbers 
     1.0000   1.0000   1.0000   1.0000   1.0000   1.0000   1.0000   1.0000
     1.0000   1.0000   1.0000   1.0000   1.0000   1.0000   1.0000   1.0000
     1.0000   1.0000   1.0000   1.0000   1.0000   1.0000   1.0000   1.0000
     1.0000   1.0000   1.0000   1.0000   1.0000   1.0000   1.0000   1.0000
     1.0000   1.0000   1.0000   1.0000   1.0000   1.0000   1.0000   1.0000
     1.0000   1.0000   1.0000   1.0000   1.0000   1.0000   1.0000   1.0000
     1.0000   1.0000   1.0000   1.0000   1.0000   1.0000   1.0000   1.0000
     1.0000   1.0000   1.0000   1.0000   1.0000   1.0000   1.0000   1.0000
     1.0000   1.0000   1.0000   1.0000   1.0000   1.0000   1.0000   1.0000
     1.0000   1.0000   1.0000   1.0000   1.0000   1.0000   1.0000   1.0000
     1.0000   1.0000   1.0000   1.0000   1.0000   1.0000   1.0000   1.0000
     1.0000   1.0000   1.0000   1.0000   1.0000   1.0000   1.0000   1.0000
     1.0000   1.0000   1.0000   1.0000   1.0000   1.0000   1.0000   1.0000
     1.0000   1.0000   1.0000   1.0000   1.0000   1.0000   1.0000   1.0000
     1.0000   1.0000   1.0000   1.0000   0.0000   0.0000   0.0000   0.0000
     0.0000   0.0000   0.0000   0.0000   0.0000   0.0000   0.0000   0.0000
     0.0000   0.0000

          k = 0.0000 0.2391 0.0000 ( 35275 PWs)   bands (ev):

   -80.4959 -80.4956 -80.4943 -80.4939 -47.4008 -47.3999 -47.3992 -47.3983
   -46.4375 -46.4371 -46.4359 -46.4354 -45.8209 -45.8202 -45.8193 -45.8185
   -42.5176 -42.5176 -42.5085 -42.5085 -14.9160 -14.8843 -14.6307 -14.6018
   -14.5956 -14.5769 -14.5398 -14.5349 -14.5269 -14.5102 -14.4547 -14.4522
   -14.4208 -14.3249 -14.0105 -13.9339 -11.7518 -11.7076 -11.7049 -11.6614
   -11.6407 -11.6292 -11.5632 -11.5285 -11.4353 -11.4308 -11.4283 -11.3999
    -1.6687  -1.2364  -1.0979  -1.0358  -0.1615   0.2615   0.3169   0.4312
     0.6411   0.7184   0.9722   1.0287   1.1181   1.1536   1.1843   1.4549
     2.2736   2.4452   2.7241   2.7844   2.8348   3.0423   3.1182   3.2231
     3.2455   3.2798   3.4539   3.6086   3.6376   3.6663   3.9019   3.9561
     3.9770   3.9859   4.0061   4.1501   4.3156   4.3440   4.4051   4.6054
     4.6153   4.7266   4.8197   5.1198   5.1812   5.2587   5.5024   5.7741
     5.9132   5.9188   6.0511   6.1634   6.2660   6.4127   6.4469   6.5543
     6.5623   6.7718   7.1080   7.1472   7.1838   7.2143   7.2521   7.4132
     7.4216   7.7936   7.8684   7.8734  11.2130  13.1488  13.3449  13.6894
    14.2904  14.5746  14.8658  15.5105  15.7664  15.8636  16.0422  16.0538
    16.1109  16.2749

     occupation numbers 
     1.0000   1.0000   1.0000   1.0000   1.0000   1.0000   1.0000   1.0000
     1.0000   1.0000   1.0000   1.0000   1.0000   1.0000   1.0000   1.0000
     1.0000   1.0000   1.0000   1.0000   1.0000   1.0000   1.0000   1.0000
     1.0000   1.0000   1.0000   1.0000   1.0000   1.0000   1.0000   1.0000
     1.0000   1.0000   1.0000   1.0000   1.0000   1.0000   1.0000   1.0000
     1.0000   1.0000   1.0000   1.0000   1.0000   1.0000   1.0000   1.0000
     1.0000   1.0000   1.0000   1.0000   1.0000   1.0000   1.0000   1.0000
     1.0000   1.0000   1.0000   1.0000   1.0000   1.0000   1.0000   1.0000
     1.0000   1.0000   1.0000   1.0000   1.0000   1.0000   1.0000   1.0000
     1.0000   1.0000   1.0000   1.0000   1.0000   1.0000   1.0000   1.0000
     1.0000   1.0000   1.0000   1.0000   1.0000   1.0000   1.0000   1.0000
     1.0000   1.0000   1.0000   1.0000   1.0000   1.0000   1.0000   1.0000
     1.0000   1.0000   1.0000   1.0000   1.0000   1.0000   1.0000   1.0000
     1.0000   1.0000   1.0000   1.0000   1.0000   1.0000   1.0000   1.0000
     1.0000   1.0000   1.0000   1.0000   0.0000   0.0000   0.0000   0.0000
     0.0000   0.0000   0.0000   0.0000   0.0000   0.0000   0.0000   0.0000
     0.0000   0.0000

          k = 0.0000 0.2391 0.2298 ( 35285 PWs)   bands (ev):

   -80.4959 -80.4956 -80.4943 -80.4939 -47.4008 -47.3999 -47.3992 -47.3983
   -46.4375 -46.4371 -46.4359 -46.4354 -45.8209 -45.8202 -45.8193 -45.8185
   -42.5176 -42.5176 -42.5085 -42.5085 -14.9101 -14.8789 -14.6745 -14.6321
   -14.5904 -14.5726 -14.5428 -14.5415 -14.5038 -14.4977 -14.4523 -14.4517
   -14.3874 -14.2867 -14.0207 -13.9486 -11.7526 -11.7136 -11.7001 -11.6708
   -11.6467 -11.6274 -11.5777 -11.5302 -11.4475 -11.4318 -11.4206 -11.4096
    -1.6456  -1.2357  -1.0981  -1.0259  -0.0982   0.2823   0.3762   0.4855
     0.6432   0.7358   0.9856   1.0413   1.1003   1.1485   1.1558   1.4360
     2.2742   2.4251   2.7172   2.7855   2.7944   2.9955   3.0648   3.1568
     3.2008   3.3577   3.4398   3.5458   3.6262   3.6593   3.8620   3.8897
     3.9448   3.9915   4.0781   4.2371   4.3487   4.3663   4.3712   4.5907
     4.6012   4.7607   4.8506   5.1302   5.1876   5.2845   5.4922   5.7463
     5.9052   5.9098   6.0538   6.1770   6.2709   6.4002   6.4016   6.5065
     6.6015   6.7857   7.1419   7.1541   7.2271   7.2303   7.2538   7.3847
     7.4042   7.7662   7.8668   7.8746  11.3593  13.1907  13.4479  13.7079
    14.3086  14.4796  15.0472  15.1948  15.7297  15.7314  15.7981  16.0372
    16.2175  16.2779

     occupation numbers 
     1.0000   1.0000   1.0000   1.0000   1.0000   1.0000   1.0000   1.0000
     1.0000   1.0000   1.0000   1.0000   1.0000   1.0000   1.0000   1.0000
     1.0000   1.0000   1.0000   1.0000   1.0000   1.0000   1.0000   1.0000
     1.0000   1.0000   1.0000   1.0000   1.0000   1.0000   1.0000   1.0000
     1.0000   1.0000   1.0000   1.0000   1.0000   1.0000   1.0000   1.0000
     1.0000   1.0000   1.0000   1.0000   1.0000   1.0000   1.0000   1.0000
     1.0000   1.0000   1.0000   1.0000   1.0000   1.0000   1.0000   1.0000
     1.0000   1.0000   1.0000   1.0000   1.0000   1.0000   1.0000   1.0000
     1.0000   1.0000   1.0000   1.0000   1.0000   1.0000   1.0000   1.0000
     1.0000   1.0000   1.0000   1.0000   1.0000   1.0000   1.0000   1.0000
     1.0000   1.0000   1.0000   1.0000   1.0000   1.0000   1.0000   1.0000
     1.0000   1.0000   1.0000   1.0000   1.0000   1.0000   1.0000   1.0000
     1.0000   1.0000   1.0000   1.0000   1.0000   1.0000   1.0000   1.0000
     1.0000   1.0000   1.0000   1.0000   1.0000   1.0000   1.0000   1.0000
     1.0000   1.0000   1.0000   1.0000   0.0000   0.0000   0.0000   0.0000
     0.0000   0.0000   0.0000   0.0000   0.0000   0.0000   0.0000   0.0000
     0.0000   0.0000

          k = 0.0000 0.2391 0.4597 ( 35280 PWs)   bands (ev):

   -80.4959 -80.4956 -80.4943 -80.4939 -47.4007 -47.4000 -47.3991 -47.3984
   -46.4375 -46.4371 -46.4359 -46.4354 -45.8209 -45.8202 -45.8192 -45.8186
   -42.5176 -42.5176 -42.5085 -42.5085 -14.9046 -14.8745 -14.7045 -14.6738
   -14.5850 -14.5697 -14.5444 -14.5435 -14.4926 -14.4914 -14.4523 -14.4520
   -14.3036 -14.2173 -14.0435 -13.9823 -11.7561 -11.7352 -11.6977 -11.6819
   -11.6530 -11.6236 -11.6097 -11.5407 -11.4922 -11.4517 -11.4063 -11.4008
    -1.5791  -1.2284  -1.1061  -1.0254   0.0968   0.3514   0.5196   0.5999
     0.6819   0.7774   1.0137   1.0585   1.0661   1.1152   1.1530   1.3811
     2.2638   2.3836   2.6531   2.6878   2.8112   2.9004   2.9354   3.0562
     3.1888   3.3212   3.4155   3.4697   3.5759   3.6389   3.6727   3.7760
     3.8807   3.9663   4.2232   4.2523   4.3896   4.4624   4.4883   4.5749
     4.6382   4.8225   4.8694   5.1407   5.2308   5.3532   5.4626   5.6895
     5.8876   5.8946   6.0621   6.1901   6.2850   6.3059   6.3633   6.4465
     6.6799   6.8287   7.1726   7.2004   7.2626   7.2689   7.3159   7.3273
     7.3432   7.7083   7.8514   7.8768  11.7492  13.3034  13.6650  13.7969
    14.3820  14.4216  14.7243  15.3023  15.4656  15.4724  15.6199  15.7121
    16.0041  16.2375

     occupation numbers 
     1.0000   1.0000   1.0000   1.0000   1.0000   1.0000   1.0000   1.0000
     1.0000   1.0000   1.0000   1.0000   1.0000   1.0000   1.0000   1.0000
     1.0000   1.0000   1.0000   1.0000   1.0000   1.0000   1.0000   1.0000
     1.0000   1.0000   1.0000   1.0000   1.0000   1.0000   1.0000   1.0000
     1.0000   1.0000   1.0000   1.0000   1.0000   1.0000   1.0000   1.0000
     1.0000   1.0000   1.0000   1.0000   1.0000   1.0000   1.0000   1.0000
     1.0000   1.0000   1.0000   1.0000   1.0000   1.0000   1.0000   1.0000
     1.0000   1.0000   1.0000   1.0000   1.0000   1.0000   1.0000   1.0000
     1.0000   1.0000   1.0000   1.0000   1.0000   1.0000   1.0000   1.0000
     1.0000   1.0000   1.0000   1.0000   1.0000   1.0000   1.0000   1.0000
     1.0000   1.0000   1.0000   1.0000   1.0000   1.0000   1.0000   1.0000
     1.0000   1.0000   1.0000   1.0000   1.0000   1.0000   1.0000   1.0000
     1.0000   1.0000   1.0000   1.0000   1.0000   1.0000   1.0000   1.0000
     1.0000   1.0000   1.0000   1.0000   1.0000   1.0000   1.0000   1.0000
     1.0000   1.0000   1.0000   1.0000   0.0000   0.0000   0.0000   0.0000
     0.0000   0.0000   0.0000   0.0000   0.0000   0.0000   0.0000   0.0000
     0.0000   0.0000

          k = 0.0000 0.2391 0.6895 ( 35285 PWs)   bands (ev):

   -80.4959 -80.4956 -80.4943 -80.4939 -47.4006 -47.4001 -47.3990 -47.3985
   -46.4375 -46.4371 -46.4359 -46.4354 -45.8208 -45.8203 -45.8192 -45.8186
   -42.5176 -42.5176 -42.5085 -42.5085 -14.9136 -14.8900 -14.6854 -14.6729
   -14.5791 -14.5665 -14.5453 -14.5431 -14.4917 -14.4916 -14.4543 -14.4539
   -14.2396 -14.1876 -14.0494 -14.0021 -11.7697 -11.7605 -11.7190 -11.6648
   -11.6538 -11.6434 -11.6238 -11.5603 -11.5299 -11.4878 -11.3908 -11.3842
    -1.4772  -1.2064  -1.1430  -1.0645   0.3959   0.4683   0.6259   0.6710
     0.8200   0.8305   0.9623   0.9629   1.0891   1.2242   1.2510   1.3090
     2.2133   2.3643   2.4820   2.5759   2.7741   2.8351   2.8543   3.0206
     3.0460   3.1971   3.2237   3.3743   3.5573   3.5663   3.6846   3.7271
     3.8032   3.9549   4.1569   4.1606   4.5154   4.6138   4.6241   4.6484
     4.7178   4.8916   4.9054   5.1097   5.2612   5.3594   5.4900   5.6600
     5.8783   5.8921   6.0771   6.1697   6.2196   6.2844   6.3269   6.4104
     6.7968   6.9052   7.1834   7.2245   7.2303   7.2465   7.3005   7.3076
     7.4296   7.6432   7.8389   7.8681  12.2770  13.4776  13.6315  14.0963
    14.3272  14.4366  14.5877  15.0963  15.1358  15.4071  15.4846  15.6207
    15.7872  16.1635

     occupation numbers 
     1.0000   1.0000   1.0000   1.0000   1.0000   1.0000   1.0000   1.0000
     1.0000   1.0000   1.0000   1.0000   1.0000   1.0000   1.0000   1.0000
     1.0000   1.0000   1.0000   1.0000   1.0000   1.0000   1.0000   1.0000
     1.0000   1.0000   1.0000   1.0000   1.0000   1.0000   1.0000   1.0000
     1.0000   1.0000   1.0000   1.0000   1.0000   1.0000   1.0000   1.0000
     1.0000   1.0000   1.0000   1.0000   1.0000   1.0000   1.0000   1.0000
     1.0000   1.0000   1.0000   1.0000   1.0000   1.0000   1.0000   1.0000
     1.0000   1.0000   1.0000   1.0000   1.0000   1.0000   1.0000   1.0000
     1.0000   1.0000   1.0000   1.0000   1.0000   1.0000   1.0000   1.0000
     1.0000   1.0000   1.0000   1.0000   1.0000   1.0000   1.0000   1.0000
     1.0000   1.0000   1.0000   1.0000   1.0000   1.0000   1.0000   1.0000
     1.0000   1.0000   1.0000   1.0000   1.0000   1.0000   1.0000   1.0000
     1.0000   1.0000   1.0000   1.0000   1.0000   1.0000   1.0000   1.0000
     1.0000   1.0000   1.0000   1.0000   1.0000   1.0000   1.0000   1.0000
     1.0000   1.0000   1.0000   1.0000   0.0000   0.0000   0.0000   0.0000
     0.0000   0.0000   0.0000   0.0000   0.0000   0.0000   0.0000   0.0000
     0.0000   0.0000

          k = 0.0000 0.2391 0.9194 ( 35271 PWs)   bands (ev):

   -80.4959 -80.4956 -80.4943 -80.4939 -47.4005 -47.4001 -47.3989 -47.3985
   -46.4375 -46.4371 -46.4359 -46.4354 -45.8208 -45.8203 -45.8192 -45.8187
   -42.5176 -42.5176 -42.5085 -42.5085 -14.9209 -14.9121 -14.6544 -14.6528
   -14.5696 -14.5642 -14.5448 -14.5424 -14.4950 -14.4946 -14.4566 -14.4563
   -14.2248 -14.2088 -14.0206 -14.0013 -11.7849 -11.7805 -11.7183 -11.6963
   -11.6520 -11.6356 -11.6159 -11.5863 -11.5361 -11.5185 -11.3795 -11.3768
    -1.3535  -1.2306  -1.1686  -1.1197   0.5771   0.6383   0.6933   0.7436
     0.8264   0.8474   0.9167   0.9598   1.1278   1.1951   1.4003   1.4025
     2.1692   2.2707   2.3779   2.4524   2.6725   2.7236   2.8606   2.8949
     3.0412   3.0993   3.1835   3.2485   3.5248   3.5466   3.6837   3.6976
     3.8776   3.9661   4.0479   4.0670   4.5971   4.6461   4.6737   4.7114
     4.8416   4.9493   5.0405   5.0996   5.1924   5.2483   5.5863   5.6474
     5.8944   5.9008   6.1016   6.1351   6.1785   6.2167   6.3527   6.3840
     6.9375   7.0100   7.0811   7.1266   7.2299   7.2321   7.3261   7.3274
     7.5142   7.5807   7.8398   7.8529  12.8381  13.3350  13.7134  13.9640
    14.4512  14.4620  14.7110  14.8821  15.0532  15.3517  15.3906  15.4875
    15.7414  15.9210

     occupation numbers 
     1.0000   1.0000   1.0000   1.0000   1.0000   1.0000   1.0000   1.0000
     1.0000   1.0000   1.0000   1.0000   1.0000   1.0000   1.0000   1.0000
     1.0000   1.0000   1.0000   1.0000   1.0000   1.0000   1.0000   1.0000
     1.0000   1.0000   1.0000   1.0000   1.0000   1.0000   1.0000   1.0000
     1.0000   1.0000   1.0000   1.0000   1.0000   1.0000   1.0000   1.0000
     1.0000   1.0000   1.0000   1.0000   1.0000   1.0000   1.0000   1.0000
     1.0000   1.0000   1.0000   1.0000   1.0000   1.0000   1.0000   1.0000
     1.0000   1.0000   1.0000   1.0000   1.0000   1.0000   1.0000   1.0000
     1.0000   1.0000   1.0000   1.0000   1.0000   1.0000   1.0000   1.0000
     1.0000   1.0000   1.0000   1.0000   1.0000   1.0000   1.0000   1.0000
     1.0000   1.0000   1.0000   1.0000   1.0000   1.0000   1.0000   1.0000
     1.0000   1.0000   1.0000   1.0000   1.0000   1.0000   1.0000   1.0000
     1.0000   1.0000   1.0000   1.0000   1.0000   1.0000   1.0000   1.0000
     1.0000   1.0000   1.0000   1.0000   1.0000   1.0000   1.0000   1.0000
     1.0000   1.0000   1.0000   1.0000   0.0000   0.0000   0.0000   0.0000
     0.0000   0.0000   0.0000   0.0000   0.0000   0.0000   0.0000   0.0000
     0.0000   0.0000

          k = 0.0000 0.4781 0.0000 ( 35227 PWs)   bands (ev):

   -80.4959 -80.4956 -80.4943 -80.4939 -47.4007 -47.4000 -47.3991 -47.3984
   -46.4375 -46.4371 -46.4359 -46.4354 -45.8208 -45.8202 -45.8192 -45.8186
   -42.5163 -42.5162 -42.5099 -42.5098 -14.8783 -14.8569 -14.6987 -14.6583
   -14.5894 -14.5843 -14.5343 -14.5326 -14.5268 -14.5232 -14.4665 -14.4664
   -14.3229 -14.2319 -14.0352 -13.9991 -11.7602 -11.7538 -11.7419 -11.6392
   -11.6379 -11.6171 -11.5598 -11.5580 -11.4266 -11.4066 -11.4057 -11.4048
    -1.5723  -1.1772  -1.1699  -1.0241  -0.0330   0.3064   0.3566   0.3816
     0.7310   0.7620   0.8774   0.9985   1.1319   1.2297   1.2545   1.3766
     2.3402   2.4431   2.5143   2.8014   2.8709   2.9082   2.9231   3.1708
     3.1857   3.3715   3.4480   3.5191   3.5745   3.6498   3.8802   3.9762
     3.9936   4.0907   4.1033   4.1363   4.3300   4.4047   4.4448   4.6550
     4.6746   4.7545   4.7708   5.0268   5.1394   5.1806   5.4170   5.5702
     5.8893   5.9226   5.9833   6.0907   6.2900   6.4633   6.5031   6.5992
     6.6719   6.7065   7.0626   7.0909   7.1605   7.2337   7.2524   7.2908
     7.4289   7.9028   7.9053   7.9388  11.6511  13.3871  13.4321  13.6016
    14.3478  14.7126  14.8177  15.4738  15.7086  15.7529  16.0896  16.1317
    16.2144  16.3722

     occupation numbers 
     1.0000   1.0000   1.0000   1.0000   1.0000   1.0000   1.0000   1.0000
     1.0000   1.0000   1.0000   1.0000   1.0000   1.0000   1.0000   1.0000
     1.0000   1.0000   1.0000   1.0000   1.0000   1.0000   1.0000   1.0000
     1.0000   1.0000   1.0000   1.0000   1.0000   1.0000   1.0000   1.0000
     1.0000   1.0000   1.0000   1.0000   1.0000   1.0000   1.0000   1.0000
     1.0000   1.0000   1.0000   1.0000   1.0000   1.0000   1.0000   1.0000
     1.0000   1.0000   1.0000   1.0000   1.0000   1.0000   1.0000   1.0000
     1.0000   1.0000   1.0000   1.0000   1.0000   1.0000   1.0000   1.0000
     1.0000   1.0000   1.0000   1.0000   1.0000   1.0000   1.0000   1.0000
     1.0000   1.0000   1.0000   1.0000   1.0000   1.0000   1.0000   1.0000
     1.0000   1.0000   1.0000   1.0000   1.0000   1.0000   1.0000   1.0000
     1.0000   1.0000   1.0000   1.0000   1.0000   1.0000   1.0000   1.0000
     1.0000   1.0000   1.0000   1.0000   1.0000   1.0000   1.0000   1.0000
     1.0000   1.0000   1.0000   1.0000   1.0000   1.0000   1.0000   1.0000
     1.0000   1.0000   1.0000   1.0000   0.0000   0.0000   0.0000   0.0000
     0.0000   0.0000   0.0000   0.0000   0.0000   0.0000   0.0000   0.0000
     0.0000   0.0000

          k = 0.0000 0.4781 0.2298 ( 35266 PWs)   bands (ev):

   -80.4959 -80.4956 -80.4943 -80.4939 -47.4007 -47.4000 -47.3991 -47.3984
[...]
     atom    2 type  2   force =     0.00000000    0.00000000    0.00000000
     atom    3 type  2   force =     0.00000000    0.00000000    0.00000000
     atom    4 type  2   force =     0.00000000   -0.00000000    0.00000000
     atom    5 type  1   force =    -0.06267875    0.00000000    0.05415996
     atom    6 type  1   force =     0.06265520    0.00000000    0.05416927
     atom    7 type  1   force =     0.06267875   -0.00000000   -0.05415996
     atom    8 type  1   force =    -0.06265520    0.00000000   -0.05416927
     atom    9 type  4   force =     0.00088562    0.00000000    0.03940350
     atom   10 type  4   force =    -0.00080171    0.00000000    0.03933410
     atom   11 type  4   force =    -0.00088562    0.00000000   -0.03940350
     atom   12 type  4   force =     0.00080171    0.00000000   -0.03933410
     atom   13 type  3   force =     0.15708880    0.00000000   -1.46510345
     atom   14 type  3   force =    -0.15707706    0.00000000   -1.46511373
     atom   15 type  3   force =    -0.15708880    0.00000000    1.46510345
     atom   16 type  3   force =     0.15707706    0.00000000    1.46511373
     atom   17 type  3   force =     1.18236714    0.00000000   -0.68888117
     atom   18 type  3   force =    -1.18237388    0.00000000   -0.68892834
     atom   19 type  3   force =    -1.18236714    0.00000000    0.68888117
     atom   20 type  3   force =     1.18237388    0.00000000    0.68892834
     atom   21 type  3   force =    -0.63995546   -0.99139971    0.72997600
     atom   22 type  3   force =     0.63999232    0.99141021    0.72996342
     atom   23 type  3   force =     0.63995546   -0.99139971   -0.72997600
     atom   24 type  3   force =    -0.63999232    0.99141021   -0.72996342
     atom   25 type  3   force =     0.63995546    0.99139971   -0.72997600
     atom   26 type  3   force =    -0.63999232   -0.99141021   -0.72996342
     atom   27 type  3   force =    -0.63995546    0.99139971    0.72997600
     atom   28 type  3   force =     0.63999232   -0.99141021    0.72996342
     The ionic contribution  to forces
     atom    1 type  2   force =     0.00043704   -0.00007484    0.00022212
     atom    2 type  2   force =    -0.00024465    0.00019863    0.00004931
     atom    3 type  2   force =     0.00056106    0.00019626    0.00028128
     atom    4 type  2   force =    -0.00012063   -0.00007721   -0.00000986
     atom    5 type  1   force =     2.88316288   -0.00078964   -1.24947125
     atom    6 type  1   force =    -2.88120553    0.00077104   -1.24905902
     atom    7 type  1   force =    -2.88360534    0.00077104    1.24955134
     atom    8 type  1   force =     2.88134302   -0.00078964    1.24889048
     atom    9 type  4   force =    -0.74128589   -0.00018571    2.26382576
     atom   10 type  4   force =     0.74228015    0.00017378    2.26316123
     atom   11 type  4   force =     0.74140205    0.00017378   -2.26391291
     atom   12 type  4   force =    -0.74242087   -0.00018571   -2.26312250
     atom   13 type  3   force =    -3.74741760   -0.00025277    1.25175734
     atom   14 type  3   force =     3.74817375    0.00019549    1.25229680
     atom   15 type  3   force =     3.74766773    0.00019549   -1.25171789
     atom   16 type  3   force =    -3.74832821   -0.00025276   -1.25227355
     atom   17 type  3   force =    -1.63163812   -0.00024479    2.89277231
     atom   18 type  3   force =     1.63289188    0.00018835    2.89289457
     atom   19 type  3   force =     1.63142809    0.00018835   -2.89283815
     atom   20 type  3   force =    -1.63257726   -0.00024479   -2.89283998
     atom   21 type  3   force =     0.79726984    2.54165572   -1.53443442
     atom   22 type  3   force =    -0.79664967   -2.54142220   -1.53471116
     atom   23 type  3   force =    -0.79748963    2.54203952    1.53398904
     atom   24 type  3   force =     0.79661768   -2.54194168    1.53449012
     atom   25 type  3   force =    -0.79737425   -2.54159632    1.53421359
     atom   26 type  3   force =     0.79651548    2.54152132    1.53470327
     atom   27 type  3   force =     0.79737204   -2.54207608   -1.53422127
     atom   28 type  3   force =    -0.79676505    2.54186540   -1.53448661
     The local contribution  to forces
     atom    1 type  2   force =    -0.00000000   -0.00000000    0.00000000
     atom    2 type  2   force =    -0.00471551   -0.00016438   -0.00225268
     atom    3 type  2   force =     0.00008476   -0.00186706    0.00003987
     atom    4 type  2   force =    -0.00463075   -0.00170269   -0.00229255
     atom    5 type  1   force =    -2.83392806   -0.00874103    1.18668133
     atom    6 type  1   force =     2.81184362   -0.00218526    1.18599141
     atom    7 type  1   force =     2.81220028   -0.00218526   -1.19730435
     atom    8 type  1   force =    -2.83009703   -0.00874103   -1.19691826
     atom    9 type  4   force =     0.72110509   -0.00001304   -2.24032817
     atom   10 type  4   force =    -0.72211253   -0.00000327   -2.23956440
     atom   11 type  4   force =    -0.72113189   -0.00000327    2.24038664
     atom   12 type  4   force =     0.72212942   -0.00001302    2.23971336
     atom   13 type  3   force =     3.58605238   -0.00202807    0.21481898
     atom   14 type  3   force =    -3.59149306   -0.00050702    0.21406393
     atom   15 type  3   force =    -3.59061921   -0.00050702   -0.21698611
     atom   16 type  3   force =     3.58662143   -0.00202809   -0.21677147
     atom   17 type  3   force =     0.38056390   -0.00205397   -2.19772444
     atom   18 type  3   force =    -0.38568389   -0.00051350   -2.19799648
     atom   19 type  3   force =    -0.38445995   -0.00051349    2.19558658
     atom   20 type  3   force =     0.38151844   -0.00205399    2.19530139
     atom   21 type  3   force =    -0.11374874   -1.47439321    0.78151416
     atom   22 type  3   force =     0.10806184    1.47239843    0.78189088
     atom   23 type  3   force =     0.10869943   -1.47356091   -0.78392491
     atom   24 type  3   force =    -0.11311927    1.47102075   -0.78398135
     atom   25 type  3   force =     0.10875375    1.47271448   -0.78385707
     atom   26 type  3   force =    -0.11290201   -1.47440645   -0.78425273
     atom   27 type  3   force =    -0.11396601    1.47100752    0.78124278
     atom   28 type  3   force =     0.10800752   -1.47324485    0.78195872
     The core correction contribution to forces
     atom    1 type  2   force =     0.00000000    0.00000000    0.00000000
     atom    2 type  2   force =     0.00000000    0.00000000    0.00000000
     atom    3 type  2   force =     0.00000000    0.00000000    0.00000000
     atom    4 type  2   force =     0.00000000    0.00000000    0.00000000
     atom    5 type  1   force =     0.00441845    0.00026383   -0.00169696
     atom    6 type  1   force =    -0.00371690    0.00006597   -0.00171029
     atom    7 type  1   force =    -0.00364633    0.00006597    0.00210188
     atom    8 type  1   force =     0.00434673    0.00026383    0.00208705
     atom    9 type  4   force =    -0.00017614    0.00000610   -0.00628541
     atom   10 type  4   force =     0.00018457    0.00000153   -0.00627852
     atom   11 type  4   force =     0.00019201    0.00000153    0.00629351
     atom   12 type  4   force =    -0.00016847    0.00000610    0.00628710
     atom   13 type  3   force =    -0.00200604   -0.00000110    0.01235976
     atom   14 type  3   force =     0.00200213   -0.00000027    0.01235979
     atom   15 type  3   force =     0.00200191   -0.00000027   -0.01236452
     atom   16 type  3   force =    -0.00200551   -0.00000110   -0.01236321
     atom   17 type  3   force =    -0.00872259   -0.00000113    0.00632274
     atom   18 type  3   force =     0.00871461   -0.00000028    0.00632182
     atom   19 type  3   force =     0.00871639   -0.00000028   -0.00632371
     atom   20 type  3   force =    -0.00872170   -0.00000114   -0.00632466
     atom   21 type  3   force =     0.00482127    0.00730444   -0.00616343
     atom   22 type  3   force =    -0.00482563   -0.00730831   -0.00616459
     atom   23 type  3   force =    -0.00482441    0.00730684    0.00616243
     atom   24 type  3   force =     0.00482193   -0.00730886    0.00616129
     atom   25 type  3   force =    -0.00482460   -0.00730796    0.00616251
     atom   26 type  3   force =     0.00482119    0.00730437    0.00616095
     atom   27 type  3   force =     0.00482201   -0.00730892   -0.00616378
     atom   28 type  3   force =    -0.00482544    0.00730719   -0.00616451
     The Hubbard contrib.    to forces
     atom    1 type  2   force =     0.00000000    0.00000000    0.00000000
     atom    2 type  2   force =     0.00000000    0.00000000    0.00000000
     atom    3 type  2   force =     0.00000000    0.00000000    0.00000000
     atom    4 type  2   force =     0.00000000    0.00000000    0.00000000
     atom    5 type  1   force =     0.00000000    0.00000000    0.00000000
     atom    6 type  1   force =     0.00000000    0.00000000    0.00000000
     atom    7 type  1   force =     0.00000000    0.00000000    0.00000000
     atom    8 type  1   force =     0.00000000    0.00000000    0.00000000
     atom    9 type  4   force =     0.00000000    0.00000000    0.00000000
     atom   10 type  4   force =     0.00000000    0.00000000    0.00000000
     atom   11 type  4   force =     0.00000000    0.00000000    0.00000000
     atom   12 type  4   force =     0.00000000    0.00000000    0.00000000
     atom   13 type  3   force =     0.00000000    0.00000000    0.00000000
     atom   14 type  3   force =     0.00000000    0.00000000    0.00000000
     atom   15 type  3   force =     0.00000000    0.00000000    0.00000000
     atom   16 type  3   force =     0.00000000    0.00000000    0.00000000
     atom   17 type  3   force =     0.00000000    0.00000000    0.00000000
     atom   18 type  3   force =     0.00000000    0.00000000    0.00000000
     atom   19 type  3   force =     0.00000000    0.00000000    0.00000000
     atom   20 type  3   force =     0.00000000    0.00000000    0.00000000
     atom   21 type  3   force =     0.00000000    0.00000000    0.00000000
     atom   22 type  3   force =     0.00000000    0.00000000    0.00000000
     atom   23 type  3   force =     0.00000000    0.00000000    0.00000000
     atom   24 type  3   force =     0.00000000    0.00000000    0.00000000
     atom   25 type  3   force =     0.00000000    0.00000000    0.00000000
     atom   26 type  3   force =     0.00000000    0.00000000    0.00000000
     atom   27 type  3   force =     0.00000000    0.00000000    0.00000000
     atom   28 type  3   force =     0.00000000    0.00000000    0.00000000
     The SCF correction term to forces
     atom    1 type  2   force =    -0.00000000    0.00000000   -0.00000000
     atom    2 type  2   force =     0.00000000    0.00000000    0.00000000
     atom    3 type  2   force =    -0.00000000    0.00000000   -0.00000000
     atom    4 type  2   force =     0.00000000    0.00000000    0.00000000
     atom    5 type  1   force =     0.00000333    0.00000001    0.00000135
     atom    6 type  1   force =     0.00000236    0.00000000   -0.00000177
     atom    7 type  1   force =    -0.00000331    0.00000000   -0.00000134
     atom    8 type  1   force =    -0.00000234    0.00000001    0.00000178
     atom    9 type  4   force =     0.00000235    0.00000000   -0.00000049
     atom   10 type  4   force =     0.00000155   -0.00000000    0.00000057
     atom   11 type  4   force =    -0.00000235   -0.00000000    0.00000049
     atom   12 type  4   force =    -0.00000155    0.00000000   -0.00000057
     atom   13 type  3   force =     0.00000336    0.00000000    0.00000212
     atom   14 type  3   force =     0.00000216   -0.00000000   -0.00000192
     atom   15 type  3   force =    -0.00000336   -0.00000000   -0.00000212
     atom   16 type  3   force =    -0.00000215    0.00000000    0.00000192
     atom   17 type  3   force =    -0.00000190    0.00000000   -0.00000106
     atom   18 type  3   force =    -0.00000015   -0.00000000    0.00000158
     atom   19 type  3   force =     0.00000190   -0.00000000    0.00000106
     atom   20 type  3   force =     0.00000015    0.00000000   -0.00000158
     atom   21 type  3   force =     0.00000183   -0.00000395   -0.00000171
     atom   22 type  3   force =     0.00000232   -0.00000270    0.00000244
     atom   23 type  3   force =    -0.00000183   -0.00000395    0.00000171
     atom   24 type  3   force =    -0.00000232   -0.00000270   -0.00000244
     atom   25 type  3   force =    -0.00000183    0.00000395    0.00000171
     atom   26 type  3   force =    -0.00000232    0.00000270   -0.00000244
     atom   27 type  3   force =     0.00000183    0.00000395   -0.00000171
     atom   28 type  3   force =     0.00000232    0.00000270    0.00000244

     Total force =     0.351303     Total SCF correction =     0.000017


     Computing stress (Cartesian axis) and pressure


     negative rho (up, down):  0.000E+00 4.849E-04
          total   stress  (Ry/bohr**3)                   (kbar)     P=      131.52
   0.00100516   0.00000000   0.00000006          147.86        0.00        0.01
   0.00000000   0.00109464   0.00000000            0.00      161.03        0.00
   0.00000006   0.00000000   0.00058238            0.01        0.00       85.67

     kinetic stress (kbar)  33549.69      0.00      0.00
                                0.00  33421.03      0.00
                                0.00      0.00  33443.41

     local   stress (kbar)  -4148.55     -0.10      0.02
                               -0.10  -5009.17     -0.00
                                0.02     -0.00  -1469.91

     nonloc. stress (kbar) -10022.23      0.00      0.00
                                0.00 -10110.46      0.00
                                0.00      0.00  -9963.36

     hartree stress (kbar)  15201.67     -0.00     -0.02
                               -0.00  15577.78      0.00
                               -0.02      0.00  13866.26

     exc-cor stress (kbar)  -3792.25      0.00      0.00
                                0.00  -3798.09     -0.00
                                0.00     -0.00  -3788.45

     corecor stress (kbar)  -3230.05     -0.00     -0.00
                               -0.00  -3213.70      0.00
                               -0.00      0.00  -3237.10

     ewald   stress (kbar) -27410.43      0.10      0.01
                                0.10 -26706.37      0.00
                                0.01      0.00 -28765.19

     hubbard stress (kbar)      0.00      0.00      0.00
                                0.00      0.00      0.00
                                0.00      0.00      0.00

     DFT-D   stress (kbar)      0.00      0.00      0.00
                                0.00      0.00      0.00
                                0.00      0.00      0.00

     XDM     stress (kbar)      0.00      0.00      0.00
                                0.00      0.00      0.00
                                0.00      0.00      0.00

     dft-nl  stress (kbar)      0.00      0.00      0.00
                                0.00      0.00      0.00
                                0.00      0.00      0.00

     TS-vdW  stress (kbar)      0.00      0.00      0.00
                                0.00      0.00      0.00
                                0.00      0.00      0.00



     init_run     :   1356.90s CPU   1626.80s WALL (       1 calls)
     electrons    : 141013.55s CPU 170559.63s WALL (       1 calls)
     forces       :    202.19s CPU    243.00s WALL (       1 calls)
     stress       :   1022.81s CPU   1255.80s WALL (       1 calls)

     Called by init_run:
     wfcinit      :   1336.49s CPU   1601.54s WALL (       1 calls)
     wfcinit:atom :      1.49s CPU      1.79s WALL (     184 calls)
     wfcinit:wfcr :   1328.38s CPU   1591.65s WALL (     184 calls)
     potinit      :      8.64s CPU      9.75s WALL (       1 calls)
     hinit0       :      7.05s CPU      8.93s WALL (       1 calls)

     Called by electrons:
     c_bands      : 117858.91s CPU 142296.39s WALL (      43 calls)
     sum_band     :  22756.59s CPU  27748.79s WALL (      43 calls)
     v_of_rho     :    109.63s CPU    133.95s WALL (      44 calls)
     v_h          :      7.62s CPU      9.05s WALL (      44 calls)
     v_xc         :    107.53s CPU    130.47s WALL (      46 calls)
     newd         :    156.84s CPU    221.23s WALL (      44 calls)
     PAW_pot      :     44.48s CPU     53.72s WALL (      44 calls)
     mix_rho      :     66.68s CPU     81.05s WALL (      43 calls)

     Called by c_bands:
     init_us_2    :    218.80s CPU    275.00s WALL (   16376 calls)
     cegterg      : 116711.64s CPU 140867.74s WALL (    7912 calls)

     Called by sum_band:
     sum_band:wei :      0.49s CPU      0.70s WALL (      43 calls)
     sum_band:loo :  22343.60s CPU  27209.87s WALL (      43 calls)
     sum_band:buf :     67.60s CPU     93.11s WALL (    7912 calls)
     sum_band:ini :     91.56s CPU    107.69s WALL (    7912 calls)
     sum_band:cal :   1832.07s CPU   2219.36s WALL (    7912 calls)
     sum_band:bec :      9.79s CPU     10.80s WALL (    7912 calls)
     addusdens    :    335.16s CPU    455.05s WALL (      43 calls)
     addusd:skk   :      2.13s CPU      2.77s WALL (     129 calls)
     addusd:dgemm :    113.62s CPU    177.17s WALL (     258 calls)
     addusd:qvan2 :    215.76s CPU    269.86s WALL (     258 calls)

     Called by *egterg:
     cdiaghg      :   2716.45s CPU   3337.27s WALL (   26450 calls)
     cegterg:over :   5304.42s CPU   6292.99s WALL (   18538 calls)
     cegterg:upda :   1155.70s CPU   1442.72s WALL (   18538 calls)
     cegterg:last :   2443.27s CPU   3034.47s WALL (   13203 calls)
     h_psi        :  99210.08s CPU 119804.35s WALL (   26634 calls)
     s_psi        :   2358.76s CPU   2916.71s WALL (   26634 calls)
     g_psi        :     17.57s CPU     21.15s WALL (   18538 calls)

     Called by h_psi:
     h_psi:calbec :   4653.78s CPU   5575.48s WALL (   26634 calls)
     vloc_psi     :  92035.80s CPU 111043.98s WALL (   26634 calls)
     add_vuspsi   :   2420.69s CPU   3062.71s WALL (   26634 calls)

     General routines
     calbec       :   6752.91s CPU   8112.71s WALL (   35466 calls)
     fft          :    124.81s CPU    149.75s WALL (    1138 calls)
     ffts         :     13.77s CPU     16.57s WALL (     174 calls)
     fftw         : 111945.35s CPU 135353.18s WALL ( 5635806 calls)
     interpolate  :     15.77s CPU     19.25s WALL (      88 calls)

     Parallel routines
     fft_scatt_xy :    538.79s CPU    542.40s WALL ( 5637118 calls)
     fft_scatt_yz : 108797.76s CPU 132167.05s WALL ( 5637118 calls)

     PAW routines
     PAW_pot      :     44.48s CPU     53.72s WALL (      44 calls)
     PAW_symme    :      5.33s CPU      6.15s WALL (      87 calls)

     PWSCF        :   1d15h53m CPU   2d 0h15m WALL


   This run was terminated on:  19:26:53   5Feb2023            

=------------------------------------------------------------------------------=
   JOB DONE.
=------------------------------------------------------------------------------=
Note: The following floating-point exceptions are signalling: IEEE_UNDERFLOW_FLAG IEEE_DENORMAL
Note: The following floating-point exceptions are signalling: IEEE_DENORMAL
Note: The following floating-point exceptions are signalling: IEEE_DENORMAL
Note: The following floating-point exceptions are signalling: IEEE_DENORMAL
Note: The following floating-point exceptions are signalling: IEEE_DENORMAL
Note: The following floating-point exceptions are signalling: IEEE_DENORMAL
Note: The following floating-point exceptions are signalling: IEEE_DENORMAL
Note: The following floating-point exceptions are signalling: IEEE_DENORMAL
Note: The following floating-point exceptions are signalling: IEEE_INVALID_FLAG IEEE_DENORMAL
