
     Program PWSCF v.6.7MaX starts on  5Feb2023 at 19:27: 0 

     This program is part of the open-source Quantum ESPRESSO suite
     for quantum simulation of materials; please cite
         "P. Giannozzi et al., J. Phys.:Condens. Matter 21 395502 (2009);
         "P. Giannozzi et al., J. Phys.:Condens. Matter 29 465901 (2017);
          URL http://www.quantum-espresso.org", 
     in publications or presentations arising from this work. More details at
     http://www.quantum-espresso.org/quote

     Parallel version (MPI), running on    12 processors

     MPI processes distributed on     1 nodes
     R & G space division:  proc/nbgrp/npool/nimage =      12
     Reading input from scale_3d-02.in

     Current dimensions of program PWSCF are:
     Max number of different atomic species (ntypx) = 10
     Max number of k-points (npk) =  40000
     Max angular momentum in pseudopotentials (lmaxx) =  3
     Message from routine read_pp_mesh:
     mesh size missing, using the one in header
     file Fe.pbe-spn-kjpaw_psl.0.2.1.UPF: wavefunction(s)  3D renormalized
     file O.pbe-n-kjpaw_psl.0.1.UPF: wavefunction(s)  2P renormalized

     Subspace diagonalization in iterative solution of the eigenvalue problem:
     a serial algorithm will be used

     Message from routine setup:
     using ibrav=0 with symmetry is DISCOURAGED, use correct ibrav instead

     Parallelization info
     --------------------
     sticks:   dense  smooth     PW     G-vecs:    dense   smooth      PW
     Min        1600     592    159               102600    23116    3255
     Max        1602     593    160               102601    23118    3258
     Sum       19211    7107   1919              1231207   277409   39077



     bravais-lattice index     =            0
     lattice parameter (alat)  =      19.3373  a.u.
     unit-cell volume          =    2054.1302 (a.u.)^3
     number of atoms/cell      =           28
     number of atomic types    =            4
     number of electrons       =       216.00
     number of Kohn-Sham states=          130
     kinetic-energy cutoff     =     100.0000  Ry
     charge density cutoff     =    1080.0000  Ry
     scf convergence threshold =      2.0E-10
     mixing beta               =       0.4000
     number of iterations used =            8  plain     mixing
     Exchange-correlation= PBE
                           (   1   4   3   4   0   0   0)

     celldm(1)=  19.337306  celldm(2)=   0.000000  celldm(3)=   0.000000
     celldm(4)=   0.000000  celldm(5)=   0.000000  celldm(6)=   0.000000

     crystal axes: (cart. coord. in units of alat)
               a(1) = (   1.000000   0.000000   0.000000 )  
               a(2) = (   0.000000   0.597590   0.000000 )  
               a(3) = (   0.000000   0.000000   0.475375 )  

     reciprocal axes: (cart. coord. in units 2 pi/alat)
               b(1) = (  1.000000  0.000000  0.000000 )  
               b(2) = (  0.000000  1.673388  0.000000 )  
               b(3) = (  0.000000  0.000000  2.103600 )  


     PseudoPot. # 1 for Fe read from file:
     /opt/QEpot/SSSP_precision_pseudos/Fe.pbe-spn-kjpaw_psl.0.2.1.UPF
     MD5 check sum: e86618425769142926afa95317d90200
     Pseudo is Projector augmented-wave + core cor, Zval = 16.0
     Generated using "atomic" code by A. Dal Corso  v.5.0.99 svn rev. 10869
     Shape of augmentation charge: PSQ
     Using radial grid of 1191 points,  6 beta functions with: 
                l(1) =   0
                l(2) =   0
                l(3) =   1
                l(4) =   1
                l(5) =   2
                l(6) =   2
     Q(r) pseudized with 0 coefficients 


     PseudoPot. # 2 for Na read from file:
     /opt/QEpot/SSSP_precision_pseudos/Na_ONCV_PBE-1.0.oncvpsp.upf
     MD5 check sum: 24a298df0a6742ae313db96548fdb2a4
     Pseudo is Norm-conserving, Zval =  9.0
     Generated using ONCVPSP code by D. R. Hamann
     Using radial grid of 1992 points,  4 beta functions with: 
                l(1) =   0
                l(2) =   0
                l(3) =   1
                l(4) =   1

     PseudoPot. # 3 for O  read from file:
     /opt/QEpot/SSSP_precision_pseudos/O.pbe-n-kjpaw_psl.0.1.UPF
     MD5 check sum: 0234752ac141de4415c5fc33072bef88
     Pseudo is Projector augmented-wave + core cor, Zval =  6.0
     Generated using "atomic" code by A. Dal Corso  v.5.0.99 svn rev. 10869
     Shape of augmentation charge: BESSEL
     Using radial grid of 1095 points,  4 beta functions with: 
                l(1) =   0
                l(2) =   0
                l(3) =   1
                l(4) =   1
     Q(r) pseudized with 0 coefficients 


     PseudoPot. # 4 for P  read from file:
     /opt/QEpot/SSSP_precision_pseudos/P.pbe-n-rrkjus_psl.1.0.0.UPF
     MD5 check sum: 8b930f418f0a4573dca56cd030ffe088
     Pseudo is Ultrasoft + core correction, Zval =  5.0
     Generated using "atomic" code by A. Dal Corso  v.5.1
     Using radial grid of 1147 points,  6 beta functions with: 
                l(1) =   0
                l(2) =   0
                l(3) =   1
                l(4) =   1
                l(5) =   2
                l(6) =   2
     Q(r) pseudized with 0 coefficients 


     atomic species   valence    mass     pseudopotential
        Fe            16.00    55.84500     Fe( 1.00)
        Na             9.00    22.98977     Na( 1.00)
        O              6.00    15.99940     O ( 1.00)
        P              5.00    30.97376     P ( 1.00)

     Starting magnetic structure 
     atomic species   magnetization
        Fe           0.312
        Na           0.000
        O            0.000
        P            0.000

      4 Sym. Ops., with inversion, found ( 2 have fractional translation)


                                    s                        frac. trans.

      isym =  1     identity                                     

 cryst.   s( 1) = (     1          0          0      )
                  (     0          1          0      )
                  (     0          0          1      )

 cart.    s( 1) = (  1.0000000  0.0000000  0.0000000 )
                  (  0.0000000  1.0000000  0.0000000 )
                  (  0.0000000  0.0000000  1.0000000 )


      isym =  2     180 deg rotation - cart. axis [0,1,0]        

 cryst.   s( 2) = (    -1          0          0      )    f =(  0.0000000 )
                  (     0          1          0      )       ( -0.4999980 )
                  (     0          0         -1      )       (  0.0000000 )

 cart.    s( 2) = ( -1.0000000  0.0000000  0.0000000 )    f =(  0.0000000 )
                  (  0.0000000  1.0000000  0.0000000 )       ( -0.2987938 )
                  (  0.0000000  0.0000000 -1.0000000 )       (  0.0000000 )


      isym =  3     inversion                                    

 cryst.   s( 3) = (    -1          0          0      )
                  (     0         -1          0      )
                  (     0          0         -1      )

 cart.    s( 3) = ( -1.0000000  0.0000000  0.0000000 )
                  (  0.0000000 -1.0000000  0.0000000 )
                  (  0.0000000  0.0000000 -1.0000000 )


      isym =  4     inv. 180 deg rotation - cart. axis [0,1,0]   

 cryst.   s( 4) = (     1          0          0      )    f =(  0.0000000 )
                  (     0         -1          0      )       (  0.4999980 )
                  (     0          0          1      )       (  0.0000000 )

 cart.    s( 4) = (  1.0000000  0.0000000  0.0000000 )    f =(  0.0000000 )
                  (  0.0000000 -1.0000000  0.0000000 )       (  0.2987938 )
                  (  0.0000000  0.0000000  1.0000000 )       (  0.0000000 )


   Cartesian axes

     site n.     atom                  positions (alat units)
         1           Na  tau(   1) = (   0.0000000   0.0000000   0.0000000  )
         2           Na  tau(   2) = (   0.5000030   0.0000000   0.2376892  )
         3           Na  tau(   3) = (   0.0000000   0.2987962   0.0000000  )
         4           Na  tau(   4) = (   0.5000030   0.2987962   0.2376892  )
         5           Fe  tau(   5) = (   0.2870220   0.4481948   0.4689037  )
         6           Fe  tau(   6) = (   0.2129810   0.1493981   0.2312146  )
         7           Fe  tau(   7) = (   0.7129840   0.1493981   0.0064746  )
         8           Fe  tau(   8) = (   0.7870240   0.4481948   0.2441638  )
         9           P   tau(   9) = (   0.1083410   0.4481948   0.2104074  )
        10           P   tau(  10) = (   0.3916620   0.1493981   0.4480965  )
        11           P   tau(  11) = (   0.8916650   0.1493981   0.2649710  )
        12           P   tau(  12) = (   0.6083440   0.4481948   0.0272818  )
        13           O   tau(  13) = (   0.1140120   0.4481948   0.3576839  )
        14           O   tau(  14) = (   0.3859910   0.1493981   0.1199948  )
        15           O   tau(  15) = (   0.8859940   0.1493981   0.1176949  )
        16           O   tau(  16) = (   0.6140150   0.4481948   0.3553841  )
        17           O   tau(  17) = (   0.4685140   0.4481948   0.0765925  )
        18           O   tau(  18) = (   0.0314890   0.1493981   0.3142817  )
        19           O   tau(  19) = (   0.5314920   0.1493981   0.3987858  )
        20           O   tau(  20) = (   0.9685170   0.4481948   0.1610967  )
        21           O   tau(  21) = (   0.1755910   0.5644936   0.1482287  )
        22           O   tau(  22) = (   0.3244120   0.0330993   0.3859179  )
        23           O   tau(  23) = (   0.8244150   0.2656968   0.3271496  )
        24           O   tau(  24) = (   0.6755940   0.3318961   0.0894604  )
        25           O   tau(  25) = (   0.8244150   0.0330993   0.3271496  )
        26           O   tau(  26) = (   0.6755940   0.5644936   0.0894604  )
        27           O   tau(  27) = (   0.1755910   0.3318961   0.1482287  )
        28           O   tau(  28) = (   0.3244120   0.2656968   0.3859179  )

   Crystallographic axes

     site n.     atom                  positions (cryst. coord.)
         1           Na  tau(   1) = (  0.0000000  0.0000000  0.0000000  )
         2           Na  tau(   2) = (  0.5000030  0.0000000  0.5000030  )
         3           Na  tau(   3) = (  0.0000000  0.5000020  0.0000000  )
         4           Na  tau(   4) = (  0.5000030  0.5000020  0.5000030  )
         5           Fe  tau(   5) = (  0.2870220  0.7500040  0.9863860  )
         6           Fe  tau(   6) = (  0.2129810  0.2500010  0.4863830  )
         7           Fe  tau(   7) = (  0.7129840  0.2500010  0.0136200  )
         8           Fe  tau(   8) = (  0.7870240  0.7500040  0.5136230  )
         9           P   tau(   9) = (  0.1083410  0.7500040  0.4426130  )
        10           P   tau(  10) = (  0.3916620  0.2500010  0.9426160  )
        11           P   tau(  11) = (  0.8916650  0.2500010  0.5573930  )
        12           P   tau(  12) = (  0.6083440  0.7500040  0.0573900  )
        13           O   tau(  13) = (  0.1140120  0.7500040  0.7524240  )
        14           O   tau(  14) = (  0.3859910  0.2500010  0.2524210  )
        15           O   tau(  15) = (  0.8859940  0.2500010  0.2475830  )
        16           O   tau(  16) = (  0.6140150  0.7500040  0.7475860  )
        17           O   tau(  17) = (  0.4685140  0.7500040  0.1611200  )
        18           O   tau(  18) = (  0.0314890  0.2500010  0.6611230  )
        19           O   tau(  19) = (  0.5314920  0.2500010  0.8388860  )
        20           O   tau(  20) = (  0.9685170  0.7500040  0.3388830  )
        21           O   tau(  21) = (  0.1755910  0.9446170  0.3118140  )
        22           O   tau(  22) = (  0.3244120  0.0553880  0.8118170  )
        23           O   tau(  23) = (  0.8244150  0.4446140  0.6881920  )
        24           O   tau(  24) = (  0.6755940  0.5553910  0.1881890  )
        25           O   tau(  25) = (  0.8244150  0.0553880  0.6881920  )
        26           O   tau(  26) = (  0.6755940  0.9446170  0.1881890  )
        27           O   tau(  27) = (  0.1755910  0.5553910  0.3118140  )
        28           O   tau(  28) = (  0.3244120  0.4446140  0.8118170  )

     number of k points=    92  Marzari-Vanderbilt smearing, width (Ry)=  0.0073
                       cart. coord. in units 2pi/alat
        k(    1) = (   0.0000000   0.0000000   0.0000000), wk =   0.0031746
        k(    2) = (   0.0000000   0.0000000   0.2337334), wk =   0.0063492
        k(    3) = (   0.0000000   0.0000000   0.4674667), wk =   0.0063492
        k(    4) = (   0.0000000   0.0000000   0.7012001), wk =   0.0063492
        k(    5) = (   0.0000000   0.0000000   0.9349334), wk =   0.0063492
        k(    6) = (   0.0000000   0.2390555   0.0000000), wk =   0.0063492
        k(    7) = (   0.0000000   0.2390555   0.2337334), wk =   0.0126984
        k(    8) = (   0.0000000   0.2390555   0.4674667), wk =   0.0126984
        k(    9) = (   0.0000000   0.2390555   0.7012001), wk =   0.0126984
        k(   10) = (   0.0000000   0.2390555   0.9349334), wk =   0.0126984
        k(   11) = (   0.0000000   0.4781110   0.0000000), wk =   0.0063492
        k(   12) = (   0.0000000   0.4781110   0.2337334), wk =   0.0126984
        k(   13) = (   0.0000000   0.4781110   0.4674667), wk =   0.0126984
        k(   14) = (   0.0000000   0.4781110   0.7012001), wk =   0.0126984
        k(   15) = (   0.0000000   0.4781110   0.9349334), wk =   0.0126984
        k(   16) = (   0.0000000   0.7171664   0.0000000), wk =   0.0063492
        k(   17) = (   0.0000000   0.7171664   0.2337334), wk =   0.0126984
        k(   18) = (   0.0000000   0.7171664   0.4674667), wk =   0.0126984
        k(   19) = (   0.0000000   0.7171664   0.7012001), wk =   0.0126984
        k(   20) = (   0.0000000   0.7171664   0.9349334), wk =   0.0126984
        k(   21) = (   0.2000000   0.0000000   0.0000000), wk =   0.0063492
        k(   22) = (   0.2000000   0.0000000   0.2337334), wk =   0.0063492
        k(   23) = (   0.2000000   0.0000000   0.4674667), wk =   0.0063492
        k(   24) = (   0.2000000   0.0000000   0.7012001), wk =   0.0063492
        k(   25) = (   0.2000000   0.0000000   0.9349334), wk =   0.0063492
        k(   26) = (   0.2000000   0.2390555   0.0000000), wk =   0.0126984
        k(   27) = (   0.2000000   0.2390555   0.2337334), wk =   0.0126984
        k(   28) = (   0.2000000   0.2390555   0.4674667), wk =   0.0126984
        k(   29) = (   0.2000000   0.2390555   0.7012001), wk =   0.0126984
        k(   30) = (   0.2000000   0.2390555   0.9349334), wk =   0.0126984
        k(   31) = (   0.2000000   0.4781110   0.0000000), wk =   0.0126984
        k(   32) = (   0.2000000   0.4781110   0.2337334), wk =   0.0126984
        k(   33) = (   0.2000000   0.4781110   0.4674667), wk =   0.0126984
        k(   34) = (   0.2000000   0.4781110   0.7012001), wk =   0.0126984
        k(   35) = (   0.2000000   0.4781110   0.9349334), wk =   0.0126984
        k(   36) = (   0.2000000   0.7171664   0.0000000), wk =   0.0126984
        k(   37) = (   0.2000000   0.7171664   0.2337334), wk =   0.0126984
        k(   38) = (   0.2000000   0.7171664   0.4674667), wk =   0.0126984
        k(   39) = (   0.2000000   0.7171664   0.7012001), wk =   0.0126984
        k(   40) = (   0.2000000   0.7171664   0.9349334), wk =   0.0126984
        k(   41) = (   0.4000000   0.0000000   0.0000000), wk =   0.0063492
        k(   42) = (   0.4000000   0.0000000   0.2337334), wk =   0.0063492
        k(   43) = (   0.4000000   0.0000000   0.4674667), wk =   0.0063492
        k(   44) = (   0.4000000   0.0000000   0.7012001), wk =   0.0063492
        k(   45) = (   0.4000000   0.0000000   0.9349334), wk =   0.0063492
        k(   46) = (   0.4000000   0.2390555   0.0000000), wk =   0.0126984
        k(   47) = (   0.4000000   0.2390555   0.2337334), wk =   0.0126984
        k(   48) = (   0.4000000   0.2390555   0.4674667), wk =   0.0126984
        k(   49) = (   0.4000000   0.2390555   0.7012001), wk =   0.0126984
        k(   50) = (   0.4000000   0.2390555   0.9349334), wk =   0.0126984
        k(   51) = (   0.4000000   0.4781110   0.0000000), wk =   0.0126984
        k(   52) = (   0.4000000   0.4781110   0.2337334), wk =   0.0126984
        k(   53) = (   0.4000000   0.4781110   0.4674667), wk =   0.0126984
        k(   54) = (   0.4000000   0.4781110   0.7012001), wk =   0.0126984
        k(   55) = (   0.4000000   0.4781110   0.9349334), wk =   0.0126984
        k(   56) = (   0.4000000   0.7171664   0.0000000), wk =   0.0126984
        k(   57) = (   0.4000000   0.7171664   0.2337334), wk =   0.0126984
        k(   58) = (   0.4000000   0.7171664   0.4674667), wk =   0.0126984
        k(   59) = (   0.4000000   0.7171664   0.7012001), wk =   0.0126984
        k(   60) = (   0.4000000   0.7171664   0.9349334), wk =   0.0126984
        k(   61) = (  -0.2000000   0.0000000   0.2337334), wk =   0.0063492
        k(   62) = (  -0.2000000   0.0000000   0.4674667), wk =   0.0063492
        k(   63) = (  -0.2000000   0.0000000   0.7012001), wk =   0.0063492
        k(   64) = (  -0.2000000   0.0000000   0.9349334), wk =   0.0063492
        k(   65) = (  -0.2000000  -0.2390555   0.2337334), wk =   0.0126984
        k(   66) = (  -0.2000000  -0.2390555   0.4674667), wk =   0.0126984
        k(   67) = (  -0.2000000  -0.2390555   0.7012001), wk =   0.0126984
        k(   68) = (  -0.2000000  -0.2390555   0.9349334), wk =   0.0126984
        k(   69) = (  -0.2000000  -0.4781110   0.2337334), wk =   0.0126984
        k(   70) = (  -0.2000000  -0.4781110   0.4674667), wk =   0.0126984
        k(   71) = (  -0.2000000  -0.4781110   0.7012001), wk =   0.0126984
        k(   72) = (  -0.2000000  -0.4781110   0.9349334), wk =   0.0126984
        k(   73) = (  -0.2000000  -0.7171664   0.2337334), wk =   0.0126984
        k(   74) = (  -0.2000000  -0.7171664   0.4674667), wk =   0.0126984
        k(   75) = (  -0.2000000  -0.7171664   0.7012001), wk =   0.0126984
        k(   76) = (  -0.2000000  -0.7171664   0.9349334), wk =   0.0126984
        k(   77) = (  -0.4000000   0.0000000   0.2337334), wk =   0.0063492
        k(   78) = (  -0.4000000   0.0000000   0.4674667), wk =   0.0063492
        k(   79) = (  -0.4000000   0.0000000   0.7012001), wk =   0.0063492
        k(   80) = (  -0.4000000   0.0000000   0.9349334), wk =   0.0063492
        k(   81) = (  -0.4000000  -0.2390555   0.2337334), wk =   0.0126984
        k(   82) = (  -0.4000000  -0.2390555   0.4674667), wk =   0.0126984
        k(   83) = (  -0.4000000  -0.2390555   0.7012001), wk =   0.0126984
        k(   84) = (  -0.4000000  -0.2390555   0.9349334), wk =   0.0126984
        k(   85) = (  -0.4000000  -0.4781110   0.2337334), wk =   0.0126984
        k(   86) = (  -0.4000000  -0.4781110   0.4674667), wk =   0.0126984
        k(   87) = (  -0.4000000  -0.4781110   0.7012001), wk =   0.0126984
        k(   88) = (  -0.4000000  -0.4781110   0.9349334), wk =   0.0126984
        k(   89) = (  -0.4000000  -0.7171664   0.2337334), wk =   0.0126984
        k(   90) = (  -0.4000000  -0.7171664   0.4674667), wk =   0.0126984
        k(   91) = (  -0.4000000  -0.7171664   0.7012001), wk =   0.0126984
        k(   92) = (  -0.4000000  -0.7171664   0.9349334), wk =   0.0126984

                       cryst. coord.
        k(    1) = (   0.0000000   0.0000000   0.0000000), wk =   0.0031746
        k(    2) = (   0.0000000   0.0000000   0.1111111), wk =   0.0063492
        k(    3) = (   0.0000000   0.0000000   0.2222222), wk =   0.0063492
        k(    4) = (   0.0000000   0.0000000   0.3333333), wk =   0.0063492
        k(    5) = (   0.0000000   0.0000000   0.4444444), wk =   0.0063492
        k(    6) = (   0.0000000   0.1428571   0.0000000), wk =   0.0063492
        k(    7) = (   0.0000000   0.1428571   0.1111111), wk =   0.0126984
        k(    8) = (   0.0000000   0.1428571   0.2222222), wk =   0.0126984
        k(    9) = (   0.0000000   0.1428571   0.3333333), wk =   0.0126984
        k(   10) = (   0.0000000   0.1428571   0.4444444), wk =   0.0126984
        k(   11) = (   0.0000000   0.2857143   0.0000000), wk =   0.0063492
        k(   12) = (   0.0000000   0.2857143   0.1111111), wk =   0.0126984
        k(   13) = (   0.0000000   0.2857143   0.2222222), wk =   0.0126984
        k(   14) = (   0.0000000   0.2857143   0.3333333), wk =   0.0126984
        k(   15) = (   0.0000000   0.2857143   0.4444444), wk =   0.0126984
        k(   16) = (   0.0000000   0.4285714   0.0000000), wk =   0.0063492
        k(   17) = (   0.0000000   0.4285714   0.1111111), wk =   0.0126984
        k(   18) = (   0.0000000   0.4285714   0.2222222), wk =   0.0126984
        k(   19) = (   0.0000000   0.4285714   0.3333333), wk =   0.0126984
        k(   20) = (   0.0000000   0.4285714   0.4444444), wk =   0.0126984
        k(   21) = (   0.2000000   0.0000000   0.0000000), wk =   0.0063492
        k(   22) = (   0.2000000   0.0000000   0.1111111), wk =   0.0063492
        k(   23) = (   0.2000000   0.0000000   0.2222222), wk =   0.0063492
        k(   24) = (   0.2000000   0.0000000   0.3333333), wk =   0.0063492
        k(   25) = (   0.2000000   0.0000000   0.4444444), wk =   0.0063492
        k(   26) = (   0.2000000   0.1428571   0.0000000), wk =   0.0126984
        k(   27) = (   0.2000000   0.1428571   0.1111111), wk =   0.0126984
        k(   28) = (   0.2000000   0.1428571   0.2222222), wk =   0.0126984
        k(   29) = (   0.2000000   0.1428571   0.3333333), wk =   0.0126984
        k(   30) = (   0.2000000   0.1428571   0.4444444), wk =   0.0126984
        k(   31) = (   0.2000000   0.2857143   0.0000000), wk =   0.0126984
        k(   32) = (   0.2000000   0.2857143   0.1111111), wk =   0.0126984
        k(   33) = (   0.2000000   0.2857143   0.2222222), wk =   0.0126984
        k(   34) = (   0.2000000   0.2857143   0.3333333), wk =   0.0126984
        k(   35) = (   0.2000000   0.2857143   0.4444444), wk =   0.0126984
        k(   36) = (   0.2000000   0.4285714   0.0000000), wk =   0.0126984
        k(   37) = (   0.2000000   0.4285714   0.1111111), wk =   0.0126984
        k(   38) = (   0.2000000   0.4285714   0.2222222), wk =   0.0126984
        k(   39) = (   0.2000000   0.4285714   0.3333333), wk =   0.0126984
        k(   40) = (   0.2000000   0.4285714   0.4444444), wk =   0.0126984
        k(   41) = (   0.4000000   0.0000000   0.0000000), wk =   0.0063492
        k(   42) = (   0.4000000   0.0000000   0.1111111), wk =   0.0063492
        k(   43) = (   0.4000000   0.0000000   0.2222222), wk =   0.0063492
        k(   44) = (   0.4000000   0.0000000   0.3333333), wk =   0.0063492
        k(   45) = (   0.4000000   0.0000000   0.4444444), wk =   0.0063492
        k(   46) = (   0.4000000   0.1428571   0.0000000), wk =   0.0126984
        k(   47) = (   0.4000000   0.1428571   0.1111111), wk =   0.0126984
        k(   48) = (   0.4000000   0.1428571   0.2222222), wk =   0.0126984
        k(   49) = (   0.4000000   0.1428571   0.3333333), wk =   0.0126984
        k(   50) = (   0.4000000   0.1428571   0.4444444), wk =   0.0126984
        k(   51) = (   0.4000000   0.2857143   0.0000000), wk =   0.0126984
        k(   52) = (   0.4000000   0.2857143   0.1111111), wk =   0.0126984
        k(   53) = (   0.4000000   0.2857143   0.2222222), wk =   0.0126984
        k(   54) = (   0.4000000   0.2857143   0.3333333), wk =   0.0126984
        k(   55) = (   0.4000000   0.2857143   0.4444444), wk =   0.0126984
        k(   56) = (   0.4000000   0.4285714   0.0000000), wk =   0.0126984
        k(   57) = (   0.4000000   0.4285714   0.1111111), wk =   0.0126984
        k(   58) = (   0.4000000   0.4285714   0.2222222), wk =   0.0126984
        k(   59) = (   0.4000000   0.4285714   0.3333333), wk =   0.0126984
        k(   60) = (   0.4000000   0.4285714   0.4444444), wk =   0.0126984
        k(   61) = (  -0.2000000   0.0000000   0.1111111), wk =   0.0063492
        k(   62) = (  -0.2000000   0.0000000   0.2222222), wk =   0.0063492
        k(   63) = (  -0.2000000   0.0000000   0.3333333), wk =   0.0063492
        k(   64) = (  -0.2000000   0.0000000   0.4444444), wk =   0.0063492
        k(   65) = (  -0.2000000  -0.1428571   0.1111111), wk =   0.0126984
        k(   66) = (  -0.2000000  -0.1428571   0.2222222), wk =   0.0126984
        k(   67) = (  -0.2000000  -0.1428571   0.3333333), wk =   0.0126984
        k(   68) = (  -0.2000000  -0.1428571   0.4444444), wk =   0.0126984
        k(   69) = (  -0.2000000  -0.2857143   0.1111111), wk =   0.0126984
        k(   70) = (  -0.2000000  -0.2857143   0.2222222), wk =   0.0126984
        k(   71) = (  -0.2000000  -0.2857143   0.3333333), wk =   0.0126984
        k(   72) = (  -0.2000000  -0.2857143   0.4444444), wk =   0.0126984
        k(   73) = (  -0.2000000  -0.4285714   0.1111111), wk =   0.0126984
        k(   74) = (  -0.2000000  -0.4285714   0.2222222), wk =   0.0126984
        k(   75) = (  -0.2000000  -0.4285714   0.3333333), wk =   0.0126984
        k(   76) = (  -0.2000000  -0.4285714   0.4444444), wk =   0.0126984
        k(   77) = (  -0.4000000   0.0000000   0.1111111), wk =   0.0063492
        k(   78) = (  -0.4000000   0.0000000   0.2222222), wk =   0.0063492
        k(   79) = (  -0.4000000   0.0000000   0.3333333), wk =   0.0063492
        k(   80) = (  -0.4000000   0.0000000   0.4444444), wk =   0.0063492
        k(   81) = (  -0.4000000  -0.1428571   0.1111111), wk =   0.0126984
        k(   82) = (  -0.4000000  -0.1428571   0.2222222), wk =   0.0126984
        k(   83) = (  -0.4000000  -0.1428571   0.3333333), wk =   0.0126984
        k(   84) = (  -0.4000000  -0.1428571   0.4444444), wk =   0.0126984
        k(   85) = (  -0.4000000  -0.2857143   0.1111111), wk =   0.0126984
        k(   86) = (  -0.4000000  -0.2857143   0.2222222), wk =   0.0126984
        k(   87) = (  -0.4000000  -0.2857143   0.3333333), wk =   0.0126984
        k(   88) = (  -0.4000000  -0.2857143   0.4444444), wk =   0.0126984
        k(   89) = (  -0.4000000  -0.4285714   0.1111111), wk =   0.0126984
        k(   90) = (  -0.4000000  -0.4285714   0.2222222), wk =   0.0126984
        k(   91) = (  -0.4000000  -0.4285714   0.3333333), wk =   0.0126984
        k(   92) = (  -0.4000000  -0.4285714   0.4444444), wk =   0.0126984

     Dense  grid:  1231207 G-vectors     FFT dimensions: ( 216, 128, 100)

     Smooth grid:   277409 G-vectors     FFT dimensions: ( 125,  80,  60)

     Dynamical RAM for                 wfc:       5.73 MB

     Dynamical RAM for     wfc (w. buffer):    1060.55 MB

     Dynamical RAM for           str. fact:       6.26 MB

     Dynamical RAM for           local pot:       0.00 MB

     Dynamical RAM for          nlocal pot:      13.41 MB

     Dynamical RAM for                qrad:      10.54 MB

     Dynamical RAM for          rho,v,vnew:      20.78 MB

     Dynamical RAM for               rhoin:       6.93 MB

     Dynamical RAM for            rho*nmix:      50.10 MB

     Dynamical RAM for           G-vectors:       6.05 MB

     Dynamical RAM for          h,s,v(r/c):       3.09 MB

     Dynamical RAM for          <psi|beta>:       0.60 MB

     Dynamical RAM for                 psi:      11.47 MB

     Dynamical RAM for                hpsi:      11.47 MB

     Dynamical RAM for                spsi:      11.47 MB

     Dynamical RAM for      wfcinit/wfcrot:      13.94 MB

     Dynamical RAM for           addusdens:     317.81 MB

     Dynamical RAM for          addusforce:     364.90 MB

     Dynamical RAM for         addusstress:     317.03 MB

     Estimated static dynamical RAM per process >       1.17 GB

     Estimated max dynamical RAM per process >       1.52 GB

     Estimated total dynamical RAM >      18.27 GB

     Check: negative core charge=   -0.000003
     Generating pointlists ...
     new r_m :   0.0823 (alat units)  1.5921 (a.u.) for type    1
     new r_m :   0.0915 (alat units)  1.7687 (a.u.) for type    2
     new r_m :   0.0608 (alat units)  1.1756 (a.u.) for type    3
     new r_m :   0.0608 (alat units)  1.1756 (a.u.) for type    4

     Initial potential from superposition of free atoms

     starting charge  215.97252, renormalised to  216.00000
     Starting wfcs are  152 randomized atomic wfcs
     Checking if some PAW data can be deallocated... 
       PAW data deallocated on   10 nodes for type:  1
       PAW data deallocated on    4 nodes for type:  3

     total cpu time spent up to now is     1649.3 secs

     Self-consistent Calculation

     iteration #  1     ecut=   100.00 Ry     beta= 0.40
     Davidson diagonalization with overlap
     ethr =  1.00E-02,  avg # of iterations =  3.8

     negative rho (up, down):  0.000E+00 3.921E-05

     total cpu time spent up to now is     6546.9 secs

     total energy              =   -2380.62091973 Ry
     estimated scf accuracy    <       5.71201378 Ry

     total magnetization       =    16.00 Bohr mag/cell
     absolute magnetization    =    16.01 Bohr mag/cell

     iteration #  2     ecut=   100.00 Ry     beta= 0.40
     Davidson diagonalization with overlap
     ethr =  2.64E-03,  avg # of iterations =  2.0

     negative rho (up, down):  0.000E+00 1.503E-04

     total cpu time spent up to now is    11015.2 secs

     total energy              =   -2381.94396315 Ry
     estimated scf accuracy    <       0.48037296 Ry

     total magnetization       =    16.00 Bohr mag/cell
     absolute magnetization    =    16.01 Bohr mag/cell

     iteration #  3     ecut=   100.00 Ry     beta= 0.40
     Davidson diagonalization with overlap
     ethr =  2.22E-04,  avg # of iterations =  8.9

     negative rho (up, down):  0.000E+00 1.756E-04

     total cpu time spent up to now is    16220.4 secs

     total energy              =   -2381.96183305 Ry
     estimated scf accuracy    <       3.35477915 Ry

     total magnetization       =    16.14 Bohr mag/cell
     absolute magnetization    =    16.19 Bohr mag/cell

     iteration #  4     ecut=   100.00 Ry     beta= 0.40
     Davidson diagonalization with overlap
     ethr =  2.22E-04,  avg # of iterations =  2.0

     negative rho (up, down):  0.000E+00 3.090E-04

     total cpu time spent up to now is    20044.7 secs

     total energy              =   -2381.99982058 Ry
     estimated scf accuracy    <       1.38727894 Ry

     total magnetization       =    16.00 Bohr mag/cell
     absolute magnetization    =    16.07 Bohr mag/cell

     iteration #  5     ecut=   100.00 Ry     beta= 0.40
     Davidson diagonalization with overlap
     ethr =  2.22E-04,  avg # of iterations =  1.5

     negative rho (up, down):  0.000E+00 4.512E-04

     total cpu time spent up to now is    23697.7 secs

     total energy              =   -2381.97094083 Ry
     estimated scf accuracy    <       2.08120575 Ry

     total magnetization       =    16.00 Bohr mag/cell
     absolute magnetization    =    16.06 Bohr mag/cell

     iteration #  6     ecut=   100.00 Ry     beta= 0.40
     Davidson diagonalization with overlap
     ethr =  2.22E-04,  avg # of iterations =  2.0

     negative rho (up, down):  0.000E+00 4.629E-04

     total cpu time spent up to now is    27465.1 secs

     total energy              =   -2382.05990816 Ry
     estimated scf accuracy    <       2.30217878 Ry

     total magnetization       =    16.00 Bohr mag/cell
     absolute magnetization    =    16.08 Bohr mag/cell

     iteration #  7     ecut=   100.00 Ry     beta= 0.40
     Davidson diagonalization with overlap
     ethr =  2.22E-04,  avg # of iterations =  1.0

     negative rho (up, down):  0.000E+00 4.678E-04

     total cpu time spent up to now is    31000.3 secs

     total energy              =   -2382.10925087 Ry
     estimated scf accuracy    <       0.07032361 Ry

     total magnetization       =    16.00 Bohr mag/cell
     absolute magnetization    =    16.07 Bohr mag/cell

     iteration #  8     ecut=   100.00 Ry     beta= 0.40
     Davidson diagonalization with overlap
     ethr =  3.26E-05,  avg # of iterations =  1.5

     negative rho (up, down):  0.000E+00 4.655E-04

     total cpu time spent up to now is    34608.0 secs

     total energy              =   -2382.11437360 Ry
     estimated scf accuracy    <       0.39640512 Ry

     total magnetization       =    16.00 Bohr mag/cell
     absolute magnetization    =    16.08 Bohr mag/cell

     iteration #  9     ecut=   100.00 Ry     beta= 0.40
     Davidson diagonalization with overlap
     ethr =  3.26E-05,  avg # of iterations =  1.2

     negative rho (up, down):  0.000E+00 4.646E-04

     total cpu time spent up to now is    38191.7 secs

     total energy              =   -2382.10507255 Ry
     estimated scf accuracy    <       0.32308889 Ry

     total magnetization       =    16.00 Bohr mag/cell
     absolute magnetization    =    16.08 Bohr mag/cell

     iteration # 10     ecut=   100.00 Ry     beta= 0.40
     Davidson diagonalization with overlap
     ethr =  3.26E-05,  avg # of iterations =  1.0

     negative rho (up, down):  0.000E+00 4.601E-04

     total cpu time spent up to now is    41755.3 secs

     total energy              =   -2382.11330506 Ry
     estimated scf accuracy    <       0.04384749 Ry

     total magnetization       =    16.00 Bohr mag/cell
     absolute magnetization    =    16.08 Bohr mag/cell

     iteration # 11     ecut=   100.00 Ry     beta= 0.40
     Davidson diagonalization with overlap
     ethr =  2.03E-05,  avg # of iterations =  1.1

     negative rho (up, down):  0.000E+00 4.595E-04

     total cpu time spent up to now is    45344.1 secs

     total energy              =   -2382.11368503 Ry
     estimated scf accuracy    <       0.05284393 Ry

     total magnetization       =    16.00 Bohr mag/cell
     absolute magnetization    =    16.09 Bohr mag/cell

     iteration # 12     ecut=   100.00 Ry     beta= 0.40
     Davidson diagonalization with overlap
     ethr =  2.03E-05,  avg # of iterations =  1.0

     negative rho (up, down):  0.000E+00 4.602E-04

     total cpu time spent up to now is    48908.0 secs

     total energy              =   -2382.11394808 Ry
     estimated scf accuracy    <       0.04979452 Ry

     total magnetization       =    16.00 Bohr mag/cell
     absolute magnetization    =    16.09 Bohr mag/cell

     iteration # 13     ecut=   100.00 Ry     beta= 0.40
     Davidson diagonalization with overlap
     ethr =  2.03E-05,  avg # of iterations =  1.0

     negative rho (up, down):  0.000E+00 4.603E-04

     total cpu time spent up to now is    52466.1 secs

     total energy              =   -2382.11450992 Ry
     estimated scf accuracy    <       0.07915953 Ry

     total magnetization       =    16.00 Bohr mag/cell
     absolute magnetization    =    16.09 Bohr mag/cell

     iteration # 14     ecut=   100.00 Ry     beta= 0.40
     Davidson diagonalization with overlap
     ethr =  2.03E-05,  avg # of iterations =  1.0

     negative rho (up, down):  0.000E+00 4.605E-04

     total cpu time spent up to now is    56031.3 secs

     total energy              =   -2382.11429604 Ry
     estimated scf accuracy    <       0.07473288 Ry

     total magnetization       =    16.00 Bohr mag/cell
     absolute magnetization    =    16.09 Bohr mag/cell

     iteration # 15     ecut=   100.00 Ry     beta= 0.40
     Davidson diagonalization with overlap
     ethr =  2.03E-05,  avg # of iterations =  1.0

     negative rho (up, down):  0.000E+00 4.045E-04

     total cpu time spent up to now is    59587.7 secs

     total energy              =   -2382.11924132 Ry
     estimated scf accuracy    <       0.07625072 Ry

     total magnetization       =    16.00 Bohr mag/cell
     absolute magnetization    =    16.09 Bohr mag/cell

     iteration # 16     ecut=   100.00 Ry     beta= 0.40
     Davidson diagonalization with overlap
     ethr =  2.03E-05,  avg # of iterations =  2.0

     negative rho (up, down):  0.000E+00 4.173E-04

     total cpu time spent up to now is    63382.9 secs

     total energy              =   -2382.12219419 Ry
     estimated scf accuracy    <       0.02716579 Ry

     total magnetization       =    16.00 Bohr mag/cell
     absolute magnetization    =    16.10 Bohr mag/cell

     iteration # 17     ecut=   100.00 Ry     beta= 0.40
     Davidson diagonalization with overlap
     ethr =  1.26E-05,  avg # of iterations =  1.1

     negative rho (up, down):  0.000E+00 4.416E-04

     total cpu time spent up to now is    66951.5 secs

     total energy              =   -2382.12286975 Ry
     estimated scf accuracy    <       0.01442789 Ry

     total magnetization       =    16.00 Bohr mag/cell
     absolute magnetization    =    16.10 Bohr mag/cell

     iteration # 18     ecut=   100.00 Ry     beta= 0.40
     Davidson diagonalization with overlap
     c_bands:  1 eigenvalues not converged
     ethr =  6.68E-06,  avg # of iterations =  2.7

     negative rho (up, down):  0.000E+00 4.629E-04

     total cpu time spent up to now is    70856.7 secs

     total energy              =   -2382.12332757 Ry
     estimated scf accuracy    <       0.00193347 Ry

     total magnetization       =    16.00 Bohr mag/cell
     absolute magnetization    =    16.10 Bohr mag/cell

     iteration # 19     ecut=   100.00 Ry     beta= 0.40
     Davidson diagonalization with overlap
     c_bands:  1 eigenvalues not converged
     c_bands:  1 eigenvalues not converged
     c_bands:  1 eigenvalues not converged
     c_bands:  1 eigenvalues not converged
     c_bands:  1 eigenvalues not converged
     c_bands:  1 eigenvalues not converged
     c_bands:  1 eigenvalues not converged
     c_bands:  1 eigenvalues not converged
     c_bands:  1 eigenvalues not converged
     ethr =  8.95E-07,  avg # of iterations = 11.0

     negative rho (up, down):  0.000E+00 4.617E-04

     total cpu time spent up to now is    75865.6 secs

     total energy              =   -2382.12438703 Ry
     estimated scf accuracy    <       0.00691549 Ry

     total magnetization       =    16.00 Bohr mag/cell
     absolute magnetization    =    16.10 Bohr mag/cell

     iteration # 20     ecut=   100.00 Ry     beta= 0.40
     Davidson diagonalization with overlap
     ethr =  8.95E-07,  avg # of iterations =  2.1

     negative rho (up, down):  0.000E+00 4.478E-04

     total cpu time spent up to now is    79634.2 secs

     total energy              =   -2382.12469525 Ry
     estimated scf accuracy    <       0.00287580 Ry

     total magnetization       =    16.00 Bohr mag/cell
     absolute magnetization    =    16.10 Bohr mag/cell

     iteration # 21     ecut=   100.00 Ry     beta= 0.40
     Davidson diagonalization with overlap
     ethr =  8.95E-07,  avg # of iterations =  1.0

     negative rho (up, down):  0.000E+00 4.412E-04

     total cpu time spent up to now is    83170.5 secs

     total energy              =   -2382.12491255 Ry
     estimated scf accuracy    <       0.00126716 Ry

     total magnetization       =    16.00 Bohr mag/cell
     absolute magnetization    =    16.10 Bohr mag/cell

     iteration # 22     ecut=   100.00 Ry     beta= 0.40
     Davidson diagonalization with overlap
     ethr =  5.87E-07,  avg # of iterations =  1.5

     negative rho (up, down):  0.000E+00 4.463E-04

     total cpu time spent up to now is    86748.8 secs

     total energy              =   -2382.12500086 Ry
     estimated scf accuracy    <       0.00067733 Ry

     total magnetization       =    16.00 Bohr mag/cell
     absolute magnetization    =    16.10 Bohr mag/cell

     iteration # 23     ecut=   100.00 Ry     beta= 0.40
     Davidson diagonalization with overlap
     ethr =  3.14E-07,  avg # of iterations =  1.0

     negative rho (up, down):  0.000E+00 4.413E-04

     total cpu time spent up to now is    90245.4 secs

     total energy              =   -2382.12505848 Ry
     estimated scf accuracy    <       0.00085324 Ry

     total magnetization       =    16.00 Bohr mag/cell
     absolute magnetization    =    16.10 Bohr mag/cell

     iteration # 24     ecut=   100.00 Ry     beta= 0.40
     Davidson diagonalization with overlap
     ethr =  3.14E-07,  avg # of iterations =  2.0

     negative rho (up, down):  0.000E+00 4.462E-04

     total cpu time spent up to now is    93922.3 secs

     total energy              =   -2382.12515606 Ry
     estimated scf accuracy    <       0.00007897 Ry

     total magnetization       =    16.00 Bohr mag/cell
     absolute magnetization    =    16.09 Bohr mag/cell

     iteration # 25     ecut=   100.00 Ry     beta= 0.40
     Davidson diagonalization with overlap
     ethr =  3.66E-08,  avg # of iterations =  2.4

     negative rho (up, down):  0.000E+00 4.506E-04

     total cpu time spent up to now is    97719.3 secs

     total energy              =   -2382.12519474 Ry
     estimated scf accuracy    <       0.00017265 Ry

     total magnetization       =    16.00 Bohr mag/cell
     absolute magnetization    =    16.09 Bohr mag/cell

     iteration # 26     ecut=   100.00 Ry     beta= 0.40
     Davidson diagonalization with overlap
     ethr =  3.66E-08,  avg # of iterations =  2.0

     negative rho (up, down):  0.000E+00 4.527E-04

     total cpu time spent up to now is   101550.8 secs

     total energy              =   -2382.12524221 Ry
     estimated scf accuracy    <       0.00005195 Ry

     total magnetization       =    16.00 Bohr mag/cell
     absolute magnetization    =    16.09 Bohr mag/cell

     iteration # 27     ecut=   100.00 Ry     beta= 0.40
     Davidson diagonalization with overlap
     ethr =  2.41E-08,  avg # of iterations =  2.0

     negative rho (up, down):  0.000E+00 4.541E-04

     total cpu time spent up to now is   105542.8 secs

     total energy              =   -2382.12530033 Ry
     estimated scf accuracy    <       0.00005389 Ry

     total magnetization       =    16.00 Bohr mag/cell
     absolute magnetization    =    16.09 Bohr mag/cell

     iteration # 28     ecut=   100.00 Ry     beta= 0.40
     Davidson diagonalization with overlap
     ethr =  2.41E-08,  avg # of iterations =  2.0

     negative rho (up, down):  0.000E+00 4.598E-04

     total cpu time spent up to now is   109421.8 secs

     total energy              =   -2382.12499764 Ry
     estimated scf accuracy    <       0.00007968 Ry

     total magnetization       =    16.00 Bohr mag/cell
     absolute magnetization    =    16.09 Bohr mag/cell

     iteration # 29     ecut=   100.00 Ry     beta= 0.40
     Davidson diagonalization with overlap
     ethr =  2.41E-08,  avg # of iterations =  4.0

     negative rho (up, down):  0.000E+00 4.661E-04

     total cpu time spent up to now is   114278.8 secs

     total energy              =   -2382.12517714 Ry
     estimated scf accuracy    <       0.00002039 Ry

     total magnetization       =    16.00 Bohr mag/cell
     absolute magnetization    =    16.09 Bohr mag/cell

     iteration # 30     ecut=   100.00 Ry     beta= 0.40
     Davidson diagonalization with overlap
     ethr =  9.44E-09,  avg # of iterations =  4.0

     negative rho (up, down):  0.000E+00 4.677E-04

     total cpu time spent up to now is   119404.2 secs

     total energy              =   -2382.12551739 Ry
     estimated scf accuracy    <       0.00002319 Ry

     total magnetization       =    16.00 Bohr mag/cell
     absolute magnetization    =    16.08 Bohr mag/cell

     iteration # 31     ecut=   100.00 Ry     beta= 0.40
     Davidson diagonalization with overlap
     ethr =  9.44E-09,  avg # of iterations =  2.0

     negative rho (up, down):  0.000E+00 4.722E-04

     total cpu time spent up to now is   123267.0 secs

     total energy              =   -2382.12536351 Ry
     estimated scf accuracy    <       0.00001577 Ry

     total magnetization       =    16.00 Bohr mag/cell
     absolute magnetization    =    16.08 Bohr mag/cell

     iteration # 32     ecut=   100.00 Ry     beta= 0.40
     Davidson diagonalization with overlap
     ethr =  7.30E-09,  avg # of iterations =  3.6

     negative rho (up, down):  0.000E+00 4.720E-04

     total cpu time spent up to now is   128097.2 secs

     total energy              =   -2382.12554076 Ry
     estimated scf accuracy    <       0.00001748 Ry

     total magnetization       =    16.00 Bohr mag/cell
     absolute magnetization    =    16.08 Bohr mag/cell

     iteration # 33     ecut=   100.00 Ry     beta= 0.40
     Davidson diagonalization with overlap
     ethr =  7.30E-09,  avg # of iterations =  2.0

     negative rho (up, down):  0.000E+00 4.727E-04

     total cpu time spent up to now is   131974.2 secs

     total energy              =   -2382.12555158 Ry
     estimated scf accuracy    <       0.00000066 Ry

     total magnetization       =    16.00 Bohr mag/cell
     absolute magnetization    =    16.08 Bohr mag/cell

     iteration # 34     ecut=   100.00 Ry     beta= 0.40
     Davidson diagonalization with overlap
     ethr =  3.05E-10,  avg # of iterations =  4.2

     negative rho (up, down):  0.000E+00 4.727E-04

     total cpu time spent up to now is   136836.9 secs

     total energy              =   -2382.12555646 Ry
     estimated scf accuracy    <       0.00000038 Ry

     total magnetization       =    16.00 Bohr mag/cell
     absolute magnetization    =    16.08 Bohr mag/cell

     iteration # 35     ecut=   100.00 Ry     beta= 0.40
     Davidson diagonalization with overlap
     ethr =  1.74E-10,  avg # of iterations =  1.8

     negative rho (up, down):  0.000E+00 4.726E-04

     total cpu time spent up to now is   140512.8 secs

     total energy              =   -2382.12555735 Ry
     estimated scf accuracy    <       0.00000035 Ry

     total magnetization       =    16.00 Bohr mag/cell
     absolute magnetization    =    16.08 Bohr mag/cell

     iteration # 36     ecut=   100.00 Ry     beta= 0.40
     Davidson diagonalization with overlap
     ethr =  1.63E-10,  avg # of iterations =  2.0

     negative rho (up, down):  0.000E+00 4.733E-04

     total cpu time spent up to now is   144602.6 secs

     total energy              =   -2382.12555427 Ry
     estimated scf accuracy    <       0.00000019 Ry

     total magnetization       =    16.00 Bohr mag/cell
     absolute magnetization    =    16.08 Bohr mag/cell

     iteration # 37     ecut=   100.00 Ry     beta= 0.40
     Davidson diagonalization with overlap
     ethr =  8.91E-11,  avg # of iterations =  4.2

     negative rho (up, down):  0.000E+00 4.733E-04

     total cpu time spent up to now is   149651.0 secs

     total energy              =   -2382.12555760 Ry
     estimated scf accuracy    <       0.00000041 Ry

     total magnetization       =    16.00 Bohr mag/cell
     absolute magnetization    =    16.08 Bohr mag/cell

     iteration # 38     ecut=   100.00 Ry     beta= 0.40
     Davidson diagonalization with overlap
     ethr =  8.91E-11,  avg # of iterations =  3.4

     negative rho (up, down):  0.000E+00 4.734E-04

     total cpu time spent up to now is   154309.8 secs

     total energy              =   -2382.12555870 Ry
     estimated scf accuracy    <       0.00000011 Ry

     total magnetization       =    16.00 Bohr mag/cell
     absolute magnetization    =    16.08 Bohr mag/cell

     iteration # 39     ecut=   100.00 Ry     beta= 0.40
     Davidson diagonalization with overlap
     ethr =  4.89E-11,  avg # of iterations =  2.0

     negative rho (up, down):  0.000E+00 4.735E-04

     total cpu time spent up to now is   158376.8 secs

     total energy              =   -2382.12555883 Ry
     estimated scf accuracy    <          7.0E-09 Ry

     total magnetization       =    16.00 Bohr mag/cell
     absolute magnetization    =    16.08 Bohr mag/cell

     iteration # 40     ecut=   100.00 Ry     beta= 0.40
     Davidson diagonalization with overlap
     ethr =  3.22E-12,  avg # of iterations =  5.2

     negative rho (up, down):  0.000E+00 4.735E-04

     total cpu time spent up to now is   164127.5 secs

     total energy              =   -2382.12555894 Ry
     estimated scf accuracy    <          2.2E-09 Ry

     total magnetization       =    16.00 Bohr mag/cell
     absolute magnetization    =    16.08 Bohr mag/cell

     iteration # 41     ecut=   100.00 Ry     beta= 0.40
     Davidson diagonalization with overlap
     ethr =  1.04E-12,  avg # of iterations =  2.0

     negative rho (up, down):  0.000E+00 4.735E-04

     total cpu time spent up to now is   168535.8 secs

     total energy              =   -2382.12555897 Ry
     estimated scf accuracy    <          5.7E-10 Ry

     total magnetization       =    16.00 Bohr mag/cell
     absolute magnetization    =    16.08 Bohr mag/cell

     iteration # 42     ecut=   100.00 Ry     beta= 0.40
     Davidson diagonalization with overlap
     ethr =  2.66E-13,  avg # of iterations =  4.0

     negative rho (up, down):  0.000E+00 4.735E-04

     total cpu time spent up to now is   173239.8 secs

     total energy              =   -2382.12555898 Ry
     estimated scf accuracy    <          9.0E-10 Ry

     total magnetization       =    16.00 Bohr mag/cell
     absolute magnetization    =    16.08 Bohr mag/cell

     iteration # 43     ecut=   100.00 Ry     beta= 0.40
     Davidson diagonalization with overlap
     ethr =  2.66E-13,  avg # of iterations =  1.9

     negative rho (up, down):  0.000E+00 4.735E-04

     Magnetic moment per site:
     atom:    1    charge:    7.9535    magn:    0.0001    constr:    0.0000
     atom:    2    charge:    7.9535    magn:    0.0001    constr:    0.0000
     atom:    3    charge:    7.9535    magn:    0.0001    constr:    0.0000
     atom:    4    charge:    7.9535    magn:    0.0001    constr:    0.0000
     atom:    5    charge:   13.3019    magn:    3.3278    constr:    0.0000
     atom:    6    charge:   13.3019    magn:    3.3278    constr:    0.0000
     atom:    7    charge:   13.3019    magn:    3.3278    constr:    0.0000
     atom:    8    charge:   13.3019    magn:    3.3278    constr:    0.0000
     atom:    9    charge:    0.8419    magn:    0.0065    constr:    0.0000
     atom:   10    charge:    0.8419    magn:    0.0065    constr:    0.0000
     atom:   11    charge:    0.8419    magn:    0.0065    constr:    0.0000
     atom:   12    charge:    0.8419    magn:    0.0065    constr:    0.0000
     atom:   13    charge:    4.2007    magn:    0.0322    constr:    0.0000
     atom:   14    charge:    4.2007    magn:    0.0322    constr:    0.0000
     atom:   15    charge:    4.2007    magn:    0.0322    constr:    0.0000
     atom:   16    charge:    4.2007    magn:    0.0322    constr:    0.0000
     atom:   17    charge:    4.2052    magn:    0.0445    constr:    0.0000
     atom:   18    charge:    4.2052    magn:    0.0444    constr:    0.0000
     atom:   19    charge:    4.2052    magn:    0.0445    constr:    0.0000
     atom:   20    charge:    4.2053    magn:    0.0444    constr:    0.0000
     atom:   21    charge:    4.1968    magn:    0.0757    constr:    0.0000
     atom:   22    charge:    4.1968    magn:    0.0757    constr:    0.0000
     atom:   23    charge:    4.1968    magn:    0.0757    constr:    0.0000
     atom:   24    charge:    4.1968    magn:    0.0757    constr:    0.0000
     atom:   25    charge:    4.1968    magn:    0.0757    constr:    0.0000
     atom:   26    charge:    4.1968    magn:    0.0757    constr:    0.0000
     atom:   27    charge:    4.1968    magn:    0.0757    constr:    0.0000
     atom:   28    charge:    4.1968    magn:    0.0757    constr:    0.0000

     total cpu time spent up to now is   176896.2 secs

     End of self-consistent calculation

 ------ SPIN UP ------------


          k = 0.0000 0.0000 0.0000 ( 34745 PWs)   bands (ev):

   -80.2634 -80.2630 -80.2618 -80.2613 -47.1267 -47.1255 -47.1250 -47.1239
   -46.2809 -46.2806 -46.2794 -46.2787 -45.5584 -45.5575 -45.5567 -45.5558
   -42.2801 -42.2801 -42.2699 -42.2698 -14.7840 -14.7377 -14.4919 -14.3772
   -14.3719 -14.3270 -14.3184 -14.3184 -14.3143 -14.3025 -14.2406 -14.2401
   -14.2157 -14.2152 -13.8324 -13.7473 -11.6020 -11.5886 -11.5552 -11.5321
   -11.5253 -11.5223 -11.4180 -11.3516 -11.3457 -11.3346 -11.3284 -11.2665
    -1.5338  -1.0732  -0.8642  -0.8463  -0.0761   0.3780   0.4300   0.5767
     0.7306   0.8477   1.1830   1.2078   1.2146   1.2545   1.2900   1.6365
     2.3868   2.5809   2.8717   2.9603   3.0977   3.2092   3.2601   3.3451
     3.4136   3.4882   3.4896   3.7901   3.8800   3.9229   3.9723   4.0901
     4.1450   4.1964   4.2117   4.2490   4.3873   4.4678   4.7155   4.7394
     4.7594   4.8639   4.9550   5.2767   5.3590   5.4827   5.7497   5.9425
     6.1637   6.2301   6.2328   6.4926   6.5624   6.5844   6.6104   6.6631
     6.8725   7.0598   7.2976   7.3255   7.3856   7.4593   7.4662   7.8345
     7.8712   7.8791   8.0186   8.0682  11.3815  13.3934  13.5812  13.9858
    14.4920  14.7987  15.2737  16.1095  16.1387  16.2395  16.4167  16.4275
    16.4514  16.5286

     occupation numbers 
     1.0000   1.0000   1.0000   1.0000   1.0000   1.0000   1.0000   1.0000
     1.0000   1.0000   1.0000   1.0000   1.0000   1.0000   1.0000   1.0000
     1.0000   1.0000   1.0000   1.0000   1.0000   1.0000   1.0000   1.0000
     1.0000   1.0000   1.0000   1.0000   1.0000   1.0000   1.0000   1.0000
     1.0000   1.0000   1.0000   1.0000   1.0000   1.0000   1.0000   1.0000
     1.0000   1.0000   1.0000   1.0000   1.0000   1.0000   1.0000   1.0000
     1.0000   1.0000   1.0000   1.0000   1.0000   1.0000   1.0000   1.0000
     1.0000   1.0000   1.0000   1.0000   1.0000   1.0000   1.0000   1.0000
     1.0000   1.0000   1.0000   1.0000   1.0000   1.0000   1.0000   1.0000
     1.0000   1.0000   1.0000   1.0000   1.0000   1.0000   1.0000   1.0000
     1.0000   1.0000   1.0000   1.0000   1.0000   1.0000   1.0000   1.0000
     1.0000   1.0000   1.0000   1.0000   1.0000   1.0000   1.0000   1.0000
     1.0000   1.0000   1.0000   1.0000   1.0000   1.0000   1.0000   1.0000
     1.0000   1.0000   1.0000   1.0000   1.0000   1.0000   1.0000   1.0000
     1.0000   1.0000   1.0000   1.0000   0.0000   0.0000   0.0000   0.0000
     0.0000   0.0000   0.0000   0.0000   0.0000   0.0000   0.0000   0.0000
     0.0000   0.0000

          k = 0.0000 0.0000 0.2337 ( 34669 PWs)   bands (ev):

   -80.2634 -80.2630 -80.2618 -80.2613 -47.1267 -47.1255 -47.1250 -47.1239
   -46.2809 -46.2806 -46.2794 -46.2787 -45.5583 -45.5575 -45.5567 -45.5558
   -42.2801 -42.2800 -42.2699 -42.2698 -14.7764 -14.7307 -14.5336 -14.4415
   -14.3654 -14.3404 -14.3185 -14.3147 -14.2677 -14.2407 -14.2403 -14.2158
   -14.2153 -14.1938 -13.8474 -13.7680 -11.5995 -11.5940 -11.5679 -11.5645
   -11.5185 -11.5128 -11.4208 -11.3758 -11.3528 -11.3281 -11.3161 -11.2714
    -1.5115  -1.0754  -0.8840  -0.8211  -0.0051   0.3979   0.4979   0.6387
     0.7303   0.8673   1.1968   1.2032   1.2202   1.2419   1.2571   1.6157
     2.3864   2.5701   2.8727   2.9105   3.1113   3.1415   3.2628   3.2748
     3.3411   3.4523   3.5393   3.7479   3.8521   3.8603   3.9942   4.0553
     4.0743   4.1406   4.3225   4.3717   4.4571   4.4734   4.6464   4.7359
     4.7387   4.9035   5.0070   5.2960   5.3594   5.5133   5.7419   5.9216
     6.1543   6.2147   6.2346   6.4923   6.5537   6.5702   6.5815   6.6172
     6.9075   7.0808   7.3344   7.3595   7.3902   7.4712   7.4812   7.8098
     7.8469   7.8504   8.0275   8.0601  11.5313  13.4260  13.6742  13.9779
    14.5335  14.7309  15.4266  15.7378  16.0052  16.0947  16.1538  16.2241
    16.6016  16.6975

     occupation numbers 
     1.0000   1.0000   1.0000   1.0000   1.0000   1.0000   1.0000   1.0000
     1.0000   1.0000   1.0000   1.0000   1.0000   1.0000   1.0000   1.0000
     1.0000   1.0000   1.0000   1.0000   1.0000   1.0000   1.0000   1.0000
     1.0000   1.0000   1.0000   1.0000   1.0000   1.0000   1.0000   1.0000
     1.0000   1.0000   1.0000   1.0000   1.0000   1.0000   1.0000   1.0000
     1.0000   1.0000   1.0000   1.0000   1.0000   1.0000   1.0000   1.0000
     1.0000   1.0000   1.0000   1.0000   1.0000   1.0000   1.0000   1.0000
     1.0000   1.0000   1.0000   1.0000   1.0000   1.0000   1.0000   1.0000
     1.0000   1.0000   1.0000   1.0000   1.0000   1.0000   1.0000   1.0000
     1.0000   1.0000   1.0000   1.0000   1.0000   1.0000   1.0000   1.0000
     1.0000   1.0000   1.0000   1.0000   1.0000   1.0000   1.0000   1.0000
     1.0000   1.0000   1.0000   1.0000   1.0000   1.0000   1.0000   1.0000
     1.0000   1.0000   1.0000   1.0000   1.0000   1.0000   1.0000   1.0000
     1.0000   1.0000   1.0000   1.0000   1.0000   1.0000   1.0000   1.0000
     1.0000   1.0000   1.0000   1.0000   0.0000   0.0000   0.0000   0.0000
     0.0000   0.0000   0.0000   0.0000   0.0000   0.0000   0.0000   0.0000
     0.0000   0.0000

          k = 0.0000 0.0000 0.4675 ( 34709 PWs)   bands (ev):

   -80.2634 -80.2630 -80.2618 -80.2613 -47.1266 -47.1256 -47.1249 -47.1240
   -46.2808 -46.2806 -46.2794 -46.2787 -45.5583 -45.5575 -45.5566 -45.5559
   -42.2801 -42.2800 -42.2699 -42.2698 -14.7712 -14.7267 -14.5548 -14.4982
   -14.3595 -14.3382 -14.3187 -14.3156 -14.2409 -14.2406 -14.2159 -14.2155
   -14.1631 -14.0906 -13.8811 -13.8145 -11.6382 -11.6117 -11.5895 -11.5714
   -11.5170 -11.5076 -11.4293 -11.4251 -11.3733 -11.3430 -11.2822 -11.2685
    -1.4462  -1.0725  -0.9180  -0.8124   0.2118   0.4697   0.6575   0.7364
     0.7998   0.9165   1.1678   1.1878   1.1982   1.2565   1.2775   1.5526
     2.3815   2.5424   2.7914   2.8748   3.0045   3.1332   3.1683   3.1701
     3.2455   3.3543   3.5885   3.7078   3.7740   3.7752   3.7974   3.9733
     4.0133   4.0846   4.4404   4.4569   4.5520   4.6078   4.6632   4.7307
     4.7831   4.9710   5.0429   5.3538   5.3630   5.5995   5.7123   5.8894
     6.1409   6.1710   6.2472   6.4386   6.4821   6.5194   6.5385   6.6141
     7.0036   7.1480   7.3897   7.4042   7.4216   7.5137   7.5280   7.7371
     7.7861   7.7883   8.0340   8.0398  11.9273  13.5193  13.8314  14.0474
    14.6413  14.6789  15.1632  15.5971  15.7629  15.8430  15.9065  16.0464
    16.4274  16.6061

     occupation numbers 
     1.0000   1.0000   1.0000   1.0000   1.0000   1.0000   1.0000   1.0000
     1.0000   1.0000   1.0000   1.0000   1.0000   1.0000   1.0000   1.0000
     1.0000   1.0000   1.0000   1.0000   1.0000   1.0000   1.0000   1.0000
     1.0000   1.0000   1.0000   1.0000   1.0000   1.0000   1.0000   1.0000
     1.0000   1.0000   1.0000   1.0000   1.0000   1.0000   1.0000   1.0000
     1.0000   1.0000   1.0000   1.0000   1.0000   1.0000   1.0000   1.0000
     1.0000   1.0000   1.0000   1.0000   1.0000   1.0000   1.0000   1.0000
     1.0000   1.0000   1.0000   1.0000   1.0000   1.0000   1.0000   1.0000
     1.0000   1.0000   1.0000   1.0000   1.0000   1.0000   1.0000   1.0000
     1.0000   1.0000   1.0000   1.0000   1.0000   1.0000   1.0000   1.0000
     1.0000   1.0000   1.0000   1.0000   1.0000   1.0000   1.0000   1.0000
     1.0000   1.0000   1.0000   1.0000   1.0000   1.0000   1.0000   1.0000
     1.0000   1.0000   1.0000   1.0000   1.0000   1.0000   1.0000   1.0000
     1.0000   1.0000   1.0000   1.0000   1.0000   1.0000   1.0000   1.0000
     1.0000   1.0000   1.0000   1.0000   0.0000   0.0000   0.0000   0.0000
     0.0000   0.0000   0.0000   0.0000   0.0000   0.0000   0.0000   0.0000
     0.0000   0.0000

          k = 0.0000 0.0000 0.7012 ( 34655 PWs)   bands (ev):

   -80.2634 -80.2630 -80.2617 -80.2613 -47.1265 -47.1257 -47.1248 -47.1241
   -46.2808 -46.2806 -46.2794 -46.2787 -45.5583 -45.5576 -45.5566 -45.5560
   -42.2801 -42.2800 -42.2699 -42.2698 -14.7848 -14.7512 -14.5091 -14.4839
   -14.3516 -14.3306 -14.3189 -14.3169 -14.2413 -14.2410 -14.2160 -14.2157
   -14.1150 -14.0743 -13.8847 -13.8310 -11.6878 -11.6578 -11.6074 -11.5614
   -11.5376 -11.4908 -11.4436 -11.4421 -11.4044 -11.3737 -11.2542 -11.2533
    -1.3430  -1.0498  -0.9811  -0.8576   0.5352   0.6029   0.7641   0.7839
     0.9729   0.9887   1.0466   1.1216   1.2124   1.3990   1.4215   1.4548
     2.3549   2.5224   2.6351   2.8204   2.8888   2.9674   3.1143   3.1313
     3.1975   3.2511   3.2831   3.6186   3.7046   3.7394   3.8108   3.8829
     3.9971   4.0465   4.3345   4.3398   4.6957   4.7819   4.8157   4.8428
     4.8728   5.0371   5.1068   5.3238   5.3757   5.6242   5.7396   5.9270
     6.1176   6.1477   6.2684   6.3296   6.4095   6.4228   6.5437   6.6260
     7.1431   7.2617   7.4095   7.4229   7.4835   7.5331   7.6147   7.6215
     7.6871   7.7426   8.0187   8.0274  12.4569  13.6789  13.7754  14.2820
    14.6237  14.6805  14.9370  15.3601  15.4479  15.7728  15.8418  15.9611
    16.1813  16.5772

     occupation numbers 
     1.0000   1.0000   1.0000   1.0000   1.0000   1.0000   1.0000   1.0000
     1.0000   1.0000   1.0000   1.0000   1.0000   1.0000   1.0000   1.0000
     1.0000   1.0000   1.0000   1.0000   1.0000   1.0000   1.0000   1.0000
     1.0000   1.0000   1.0000   1.0000   1.0000   1.0000   1.0000   1.0000
     1.0000   1.0000   1.0000   1.0000   1.0000   1.0000   1.0000   1.0000
     1.0000   1.0000   1.0000   1.0000   1.0000   1.0000   1.0000   1.0000
     1.0000   1.0000   1.0000   1.0000   1.0000   1.0000   1.0000   1.0000
     1.0000   1.0000   1.0000   1.0000   1.0000   1.0000   1.0000   1.0000
     1.0000   1.0000   1.0000   1.0000   1.0000   1.0000   1.0000   1.0000
     1.0000   1.0000   1.0000   1.0000   1.0000   1.0000   1.0000   1.0000
     1.0000   1.0000   1.0000   1.0000   1.0000   1.0000   1.0000   1.0000
     1.0000   1.0000   1.0000   1.0000   1.0000   1.0000   1.0000   1.0000
     1.0000   1.0000   1.0000   1.0000   1.0000   1.0000   1.0000   1.0000
     1.0000   1.0000   1.0000   1.0000   1.0000   1.0000   1.0000   1.0000
     1.0000   1.0000   1.0000   1.0000   0.0000   0.0000   0.0000   0.0000
     0.0000   0.0000   0.0000   0.0000   0.0000   0.0000   0.0000   0.0000
     0.0000   0.0000

          k = 0.0000 0.0000 0.9349 ( 34716 PWs)   bands (ev):

   -80.2634 -80.2630 -80.2618 -80.2613 -47.1264 -47.1258 -47.1247 -47.1243
   -46.2808 -46.2806 -46.2794 -46.2787 -45.5582 -45.5577 -45.5565 -45.5560
   -42.2801 -42.2800 -42.2699 -42.2698 -14.7936 -14.7815 -14.4499 -14.4457
   -14.3313 -14.3187 -14.3185 -14.3175 -14.2414 -14.2413 -14.2160 -14.2159
   -14.1455 -14.1355 -13.8400 -13.8182 -11.7138 -11.6984 -11.6164 -11.6049
   -11.4987 -11.4692 -11.4652 -11.4400 -11.4282 -11.4039 -11.2412 -11.2402
    -1.2144  -1.0836  -1.0022  -0.9335   0.7175   0.7979   0.8261   0.8604
     0.9244   0.9958   1.0573   1.1361   1.2615   1.3477   1.5822   1.5982
     2.3251   2.4321   2.5470   2.6527   2.8209   2.8768   2.9395   3.0280
     3.1495   3.1914   3.3134   3.4440   3.7194   3.7292   3.8191   3.8221
     4.0480   4.1114   4.1904   4.2139   4.7782   4.8264   4.8522   4.8971
     5.0719   5.1410   5.2441   5.2517   5.3158   5.4927   5.8675   5.9625
     6.1406   6.1839   6.2451   6.2828   6.3001   6.3490   6.5758   6.6094
     7.3065   7.4052   7.4238   7.4325   7.4727   7.5167   7.5285   7.5544
     7.6842   7.7211   8.0094   8.0151  13.0135  13.4981  13.9050  14.1427
    14.6904  14.6920  14.9968  15.1281  15.4292  15.7138  15.7684  15.8529
    16.1442  16.3538

     occupation numbers 
     1.0000   1.0000   1.0000   1.0000   1.0000   1.0000   1.0000   1.0000
     1.0000   1.0000   1.0000   1.0000   1.0000   1.0000   1.0000   1.0000
     1.0000   1.0000   1.0000   1.0000   1.0000   1.0000   1.0000   1.0000
     1.0000   1.0000   1.0000   1.0000   1.0000   1.0000   1.0000   1.0000
     1.0000   1.0000   1.0000   1.0000   1.0000   1.0000   1.0000   1.0000
     1.0000   1.0000   1.0000   1.0000   1.0000   1.0000   1.0000   1.0000
     1.0000   1.0000   1.0000   1.0000   1.0000   1.0000   1.0000   1.0000
     1.0000   1.0000   1.0000   1.0000   1.0000   1.0000   1.0000   1.0000
     1.0000   1.0000   1.0000   1.0000   1.0000   1.0000   1.0000   1.0000
     1.0000   1.0000   1.0000   1.0000   1.0000   1.0000   1.0000   1.0000
     1.0000   1.0000   1.0000   1.0000   1.0000   1.0000   1.0000   1.0000
     1.0000   1.0000   1.0000   1.0000   1.0000   1.0000   1.0000   1.0000
     1.0000   1.0000   1.0000   1.0000   1.0000   1.0000   1.0000   1.0000
     1.0000   1.0000   1.0000   1.0000   1.0000   1.0000   1.0000   1.0000
     1.0000   1.0000   1.0000   1.0000   0.0000   0.0000   0.0000   0.0000
     0.0000   0.0000   0.0000   0.0000   0.0000   0.0000   0.0000   0.0000
     0.0000   0.0000

          k = 0.0000 0.2391 0.0000 ( 34769 PWs)   bands (ev):

   -80.2634 -80.2630 -80.2618 -80.2613 -47.1266 -47.1256 -47.1250 -47.1240
   -46.2809 -46.2806 -46.2794 -46.2787 -45.5583 -45.5575 -45.5566 -45.5559
   -42.2796 -42.2796 -42.2704 -42.2703 -14.7705 -14.7287 -14.5157 -14.4004
   -14.3724 -14.3674 -14.3219 -14.3141 -14.3030 -14.2902 -14.2320 -14.2272
   -14.2083 -14.1682 -13.8405 -13.7704 -11.6033 -11.5821 -11.5596 -11.5481
   -11.5418 -11.5253 -11.4365 -11.3615 -11.3308 -11.3179 -11.3074 -11.2689
    -1.4967  -1.0461  -0.8933  -0.8364  -0.0304   0.3946   0.4475   0.5575
     0.7830   0.8513   1.1133   1.1695   1.2584   1.3021   1.3268   1.6080
     2.4038   2.5834   2.8443   2.9165   2.9831   3.1820   3.2427   3.3654
     3.3866   3.4266   3.6251   3.7756   3.7916   3.8297   4.0273   4.1470
     4.1561   4.1735   4.2157   4.3044   4.4619   4.5151   4.5859   4.7558
     4.8003   4.8764   4.9359   5.2470   5.3640   5.4366   5.6997   5.9539
     6.1173   6.1465   6.2879   6.3975   6.4750   6.6278   6.6767   6.7951
     6.8383   7.0241   7.3242   7.3793   7.4159   7.4470   7.4793   7.6723
     7.6826   8.0315   8.1044   8.1075  11.5437  13.4825  13.6826  13.9600
    14.5700  14.8895  15.2350  15.9885  16.0993  16.2225  16.3255  16.4349
    16.5124  16.5680

     occupation numbers 
     1.0000   1.0000   1.0000   1.0000   1.0000   1.0000   1.0000   1.0000
     1.0000   1.0000   1.0000   1.0000   1.0000   1.0000   1.0000   1.0000
     1.0000   1.0000   1.0000   1.0000   1.0000   1.0000   1.0000   1.0000
     1.0000   1.0000   1.0000   1.0000   1.0000   1.0000   1.0000   1.0000
     1.0000   1.0000   1.0000   1.0000   1.0000   1.0000   1.0000   1.0000
     1.0000   1.0000   1.0000   1.0000   1.0000   1.0000   1.0000   1.0000
     1.0000   1.0000   1.0000   1.0000   1.0000   1.0000   1.0000   1.0000
     1.0000   1.0000   1.0000   1.0000   1.0000   1.0000   1.0000   1.0000
     1.0000   1.0000   1.0000   1.0000   1.0000   1.0000   1.0000   1.0000
     1.0000   1.0000   1.0000   1.0000   1.0000   1.0000   1.0000   1.0000
     1.0000   1.0000   1.0000   1.0000   1.0000   1.0000   1.0000   1.0000
     1.0000   1.0000   1.0000   1.0000   1.0000   1.0000   1.0000   1.0000
     1.0000   1.0000   1.0000   1.0000   1.0000   1.0000   1.0000   1.0000
     1.0000   1.0000   1.0000   1.0000   1.0000   1.0000   1.0000   1.0000
     1.0000   1.0000   1.0000   1.0000   0.0000   0.0000   0.0000   0.0000
     0.0000   0.0000   0.0000   0.0000   0.0000   0.0000   0.0000   0.0000
     0.0000   0.0000

          k = 0.0000 0.2391 0.2337 ( 34721 PWs)   bands (ev):

   -80.2634 -80.2630 -80.2618 -80.2613 -47.1266 -47.1256 -47.1250 -47.1240
   -46.2809 -46.2806 -46.2794 -46.2787 -45.5583 -45.5575 -45.5566 -45.5559
   -42.2796 -42.2796 -42.2704 -42.2703 -14.7630 -14.7216 -14.5433 -14.4578
   -14.3647 -14.3507 -14.3179 -14.3166 -14.2798 -14.2695 -14.2275 -14.2255
   -14.1936 -14.1326 -13.8539 -13.7880 -11.6103 -11.5915 -11.5809 -11.5469
   -11.5373 -11.5171 -11.4531 -11.3658 -11.3388 -11.3131 -11.3107 -11.2703
    -1.4746  -1.0478  -0.8975  -0.8237   0.0377   0.4146   0.5134   0.6172
     0.7830   0.8704   1.1260   1.1826   1.2423   1.2943   1.2976   1.5875
     2.4034   2.5627   2.8343   2.9246   2.9317   3.1409   3.1886   3.3105
     3.3254   3.4964   3.6105   3.7071   3.7889   3.8316   4.0049   4.0918
     4.1382   4.1489   4.2655   4.3984   4.5086   4.5224   4.5497   4.7603
     4.7716   4.9111   4.9768   5.2583   5.3678   5.4641   5.6906   5.9287
     6.1114   6.1374   6.2921   6.4093   6.4794   6.6152   6.6308   6.7497
     6.8728   7.0393   7.3571   7.3843   7.4612   7.4631   7.4809   7.6439
     7.6656   8.0054   8.0977   8.1127  11.6880  13.5156  13.7777  13.9751
    14.5983  14.8076  15.4059  15.6250  16.0555  16.0823  16.1145  16.3522
    16.6080  16.6544

     occupation numbers 
     1.0000   1.0000   1.0000   1.0000   1.0000   1.0000   1.0000   1.0000
     1.0000   1.0000   1.0000   1.0000   1.0000   1.0000   1.0000   1.0000
     1.0000   1.0000   1.0000   1.0000   1.0000   1.0000   1.0000   1.0000
     1.0000   1.0000   1.0000   1.0000   1.0000   1.0000   1.0000   1.0000
     1.0000   1.0000   1.0000   1.0000   1.0000   1.0000   1.0000   1.0000
     1.0000   1.0000   1.0000   1.0000   1.0000   1.0000   1.0000   1.0000
     1.0000   1.0000   1.0000   1.0000   1.0000   1.0000   1.0000   1.0000
     1.0000   1.0000   1.0000   1.0000   1.0000   1.0000   1.0000   1.0000
     1.0000   1.0000   1.0000   1.0000   1.0000   1.0000   1.0000   1.0000
     1.0000   1.0000   1.0000   1.0000   1.0000   1.0000   1.0000   1.0000
     1.0000   1.0000   1.0000   1.0000   1.0000   1.0000   1.0000   1.0000
     1.0000   1.0000   1.0000   1.0000   1.0000   1.0000   1.0000   1.0000
     1.0000   1.0000   1.0000   1.0000   1.0000   1.0000   1.0000   1.0000
     1.0000   1.0000   1.0000   1.0000   1.0000   1.0000   1.0000   1.0000
     1.0000   1.0000   1.0000   1.0000   0.0000   0.0000   0.0000   0.0000
     0.0000   0.0000   0.0000   0.0000   0.0000   0.0000   0.0000   0.0000
     0.0000   0.0000

          k = 0.0000 0.2391 0.4675 ( 34695 PWs)   bands (ev):

   -80.2634 -80.2630 -80.2618 -80.2613 -47.1265 -47.1256 -47.1249 -47.1241
   -46.2808 -46.2806 -46.2794 -46.2787 -45.5583 -45.5576 -45.5566 -45.5559
   -42.2796 -42.2796 -42.2704 -42.2703 -14.7571 -14.7163 -14.5564 -14.5034
   -14.3601 -14.3460 -14.3179 -14.3170 -14.2605 -14.2587 -14.2249 -14.2244
   -14.1271 -14.0604 -13.8834 -13.8269 -11.6351 -11.6211 -11.6200 -11.5301
   -11.5250 -11.5206 -11.4845 -11.3811 -11.3670 -11.3376 -11.2849 -11.2636
    -1.4101  -1.0451  -0.9146  -0.8215   0.2469   0.4838   0.6694   0.7415
     0.8215   0.9161   1.1509   1.1992   1.2128   1.2600   1.2975   1.5283
     2.3905   2.5206   2.7630   2.8387   2.9349   3.0420   3.0637   3.1991
     3.3181   3.4662   3.5927   3.6283   3.7407   3.8096   3.8400   3.9369
     4.0711   4.1229   4.3900   4.4157   4.5596   4.6398   4.6521   4.7511
     4.8174   4.9749   5.0061   5.2923   5.3875   5.5401   5.6609   5.8767
     6.0985   6.1216   6.3036   6.4228   6.4936   6.5354   6.5773   6.6810
     6.9504   7.0859   7.3983   7.4132   7.4952   7.5022   7.5610   7.5764
     7.6051   7.9490   8.0819   8.1134  12.0716  13.6087  13.9236  14.1088
    14.6894  14.7526  15.1092  15.6383  15.7920  15.8225  15.9734  16.0469
    16.3909  16.6263

     occupation numbers 
     1.0000   1.0000   1.0000   1.0000   1.0000   1.0000   1.0000   1.0000
     1.0000   1.0000   1.0000   1.0000   1.0000   1.0000   1.0000   1.0000
     1.0000   1.0000   1.0000   1.0000   1.0000   1.0000   1.0000   1.0000
     1.0000   1.0000   1.0000   1.0000   1.0000   1.0000   1.0000   1.0000
     1.0000   1.0000   1.0000   1.0000   1.0000   1.0000   1.0000   1.0000
     1.0000   1.0000   1.0000   1.0000   1.0000   1.0000   1.0000   1.0000
     1.0000   1.0000   1.0000   1.0000   1.0000   1.0000   1.0000   1.0000
     1.0000   1.0000   1.0000   1.0000   1.0000   1.0000   1.0000   1.0000
     1.0000   1.0000   1.0000   1.0000   1.0000   1.0000   1.0000   1.0000
     1.0000   1.0000   1.0000   1.0000   1.0000   1.0000   1.0000   1.0000
     1.0000   1.0000   1.0000   1.0000   1.0000   1.0000   1.0000   1.0000
     1.0000   1.0000   1.0000   1.0000   1.0000   1.0000   1.0000   1.0000
     1.0000   1.0000   1.0000   1.0000   1.0000   1.0000   1.0000   1.0000
     1.0000   1.0000   1.0000   1.0000   1.0000   1.0000   1.0000   1.0000
     1.0000   1.0000   1.0000   1.0000   0.0000   0.0000   0.0000   0.0000
     0.0000   0.0000   0.0000   0.0000   0.0000   0.0000   0.0000   0.0000
     0.0000   0.0000

          k = 0.0000 0.2391 0.7012 ( 34688 PWs)   bands (ev):

   -80.2634 -80.2630 -80.2618 -80.2613 -47.1264 -47.1258 -47.1248 -47.1242
   -46.2808 -46.2806 -46.2794 -46.2787 -45.5583 -45.5576 -45.5566 -45.5560
   -42.2796 -42.2795 -42.2704 -42.2703 -14.7688 -14.7376 -14.5096 -14.4847
   -14.3591 -14.3463 -14.3186 -14.3159 -14.2593 -14.2591 -14.2268 -14.2261
   -14.0814 -14.0440 -13.8857 -13.8383 -11.6853 -11.6646 -11.6299 -11.5720
   -11.5148 -11.4958 -11.4834 -11.4084 -11.3896 -11.3704 -11.2617 -11.2523
    -1.3090  -1.0254  -0.9621  -0.8649   0.5608   0.6071   0.7658   0.8175
     0.9620   0.9927   1.0993   1.1023   1.2282   1.3803   1.4153   1.4559
     2.3377   2.5000   2.6022   2.7217   2.9016   2.9569   2.9860   3.1647
     3.2150   3.3225   3.3767   3.5236   3.7157   3.7299   3.8418   3.9005
     3.9696   4.1127   4.3110   4.3200   4.6869   4.7898   4.8150   4.8193
     4.9001   5.0471   5.0648   5.2764   5.4113   5.5668   5.6738   5.8479
     6.0936   6.1177   6.3221   6.4073   6.4503   6.5019   6.5328   6.6324
     7.0653   7.1658   7.4112   7.4388   7.4887   7.5036   7.5328   7.5439
     7.6659   7.8841   8.0690   8.1026  12.5891  13.7655  13.8849  14.3674
    14.6556  14.7537  14.9469  15.4330  15.4757  15.7518  15.8609  15.9620
    16.1908  16.5450

     occupation numbers 
     1.0000   1.0000   1.0000   1.0000   1.0000   1.0000   1.0000   1.0000
     1.0000   1.0000   1.0000   1.0000   1.0000   1.0000   1.0000   1.0000
     1.0000   1.0000   1.0000   1.0000   1.0000   1.0000   1.0000   1.0000
     1.0000   1.0000   1.0000   1.0000   1.0000   1.0000   1.0000   1.0000
     1.0000   1.0000   1.0000   1.0000   1.0000   1.0000   1.0000   1.0000
     1.0000   1.0000   1.0000   1.0000   1.0000   1.0000   1.0000   1.0000
     1.0000   1.0000   1.0000   1.0000   1.0000   1.0000   1.0000   1.0000
     1.0000   1.0000   1.0000   1.0000   1.0000   1.0000   1.0000   1.0000
     1.0000   1.0000   1.0000   1.0000   1.0000   1.0000   1.0000   1.0000
     1.0000   1.0000   1.0000   1.0000   1.0000   1.0000   1.0000   1.0000
     1.0000   1.0000   1.0000   1.0000   1.0000   1.0000   1.0000   1.0000
     1.0000   1.0000   1.0000   1.0000   1.0000   1.0000   1.0000   1.0000
     1.0000   1.0000   1.0000   1.0000   1.0000   1.0000   1.0000   1.0000
     1.0000   1.0000   1.0000   1.0000   1.0000   1.0000   1.0000   1.0000
     1.0000   1.0000   1.0000   1.0000   0.0000   0.0000   0.0000   0.0000
     0.0000   0.0000   0.0000   0.0000   0.0000   0.0000   0.0000   0.0000
     0.0000   0.0000

          k = 0.0000 0.2391 0.9349 ( 34658 PWs)   bands (ev):

   -80.2634 -80.2630 -80.2618 -80.2613 -47.1264 -47.1258 -47.1246 -47.1243
   -46.2808 -46.2806 -46.2794 -46.2787 -45.5582 -45.5577 -45.5565 -45.5560
   -42.2796 -42.2795 -42.2704 -42.2703 -14.7765 -14.7652 -14.4436 -14.4388
   -14.3613 -14.3534 -14.3173 -14.3144 -14.2659 -14.2647 -14.2299 -14.2295
   -14.0927 -14.0829 -13.8448 -13.8252 -11.7138 -11.7027 -11.6309 -11.6147
   -11.4961 -11.4823 -11.4637 -11.4348 -11.4043 -11.3965 -11.2482 -11.2456
    -1.1835  -1.0564  -0.9855  -0.9295   0.7134   0.7755   0.8671   0.8847
     0.9612   0.9993   1.0722   1.1312   1.2633   1.3314   1.5862   1.5909
     2.2900   2.3943   2.5143   2.5924   2.7990   2.8568   2.9860   3.0342
     3.1896   3.2511   3.3007   3.3798   3.6823   3.7062   3.8581   3.8706
     4.0195   4.1227   4.1945   4.2276   4.7678   4.8211   4.8555   4.8988
     5.0066   5.1284   5.2100   5.2796   5.3528   5.4476   5.7735   5.8347
     6.1125   6.1236   6.3478   6.3774   6.4066   6.4369   6.5609   6.5971
     7.2039   7.2717   7.3429   7.3873   7.4480   7.4509   7.5597   7.5627
     7.7527   7.8208   8.0703   8.0850  13.1368  13.6166  13.9881  14.2227
    14.7374  14.7568  15.0569  15.1954  15.4498  15.7370  15.7429  15.8334
    16.1680  16.3598

     occupation numbers 
     1.0000   1.0000   1.0000   1.0000   1.0000   1.0000   1.0000   1.0000
     1.0000   1.0000   1.0000   1.0000   1.0000   1.0000   1.0000   1.0000
     1.0000   1.0000   1.0000   1.0000   1.0000   1.0000   1.0000   1.0000
     1.0000   1.0000   1.0000   1.0000   1.0000   1.0000   1.0000   1.0000
     1.0000   1.0000   1.0000   1.0000   1.0000   1.0000   1.0000   1.0000
     1.0000   1.0000   1.0000   1.0000   1.0000   1.0000   1.0000   1.0000
     1.0000   1.0000   1.0000   1.0000   1.0000   1.0000   1.0000   1.0000
     1.0000   1.0000   1.0000   1.0000   1.0000   1.0000   1.0000   1.0000
     1.0000   1.0000   1.0000   1.0000   1.0000   1.0000   1.0000   1.0000
     1.0000   1.0000   1.0000   1.0000   1.0000   1.0000   1.0000   1.0000
     1.0000   1.0000   1.0000   1.0000   1.0000   1.0000   1.0000   1.0000
     1.0000   1.0000   1.0000   1.0000   1.0000   1.0000   1.0000   1.0000
     1.0000   1.0000   1.0000   1.0000   1.0000   1.0000   1.0000   1.0000
     1.0000   1.0000   1.0000   1.0000   1.0000   1.0000   1.0000   1.0000
     1.0000   1.0000   1.0000   1.0000   0.0000   0.0000   0.0000   0.0000
     0.0000   0.0000   0.0000   0.0000   0.0000   0.0000   0.0000   0.0000
     0.0000   0.0000

          k = 0.0000 0.4781 0.0000 ( 34707 PWs)   bands (ev):

   -80.2634 -80.2630 -80.2618 -80.2613 -47.1265 -47.1257 -47.1248 -47.1241
   -46.2808 -46.2806 -46.2794 -46.2787 -45.5583 -45.5576 -45.5566 -45.5559
   -42.2783 -42.2782 -42.2718 -42.2717 -14.7312 -14.7029 -14.5639 -14.4986
   -14.3591 -14.3548 -14.3075 -14.3033 -14.3018 -14.3012 -14.2415 -14.2415
   -14.1410 -14.0720 -13.8667 -13.8356 -11.6096 -11.6023 -11.5935 -11.5567
   -11.5279 -11.5161 -11.4631 -11.4021 -11.3202 -11.2764 -11.2728 -11.2714
    -1.3949  -0.9773  -0.9768  -0.8240   0.0976   0.4406   0.4884   0.5086
     0.8624   0.9053   1.0134   1.1377   1.2722   1.3797   1.3997   1.5279
     2.4705   2.5835   2.6400   2.9356   3.0136   3.0224   3.0569   3.2907
     3.3530   3.5427   3.6048   3.6919   3.7310   3.8083   4.0373   4.1593
     4.1657   4.2608   4.2836   4.3124   4.4875   4.5523   4.5874   4.8332
     4.8574   4.8773   4.9234   5.1737   5.3142   5.3565   5.6130   5.7516
     6.1187   6.1330   6.2178   6.3296   6.4969   6.7122   6.7229   6.8488
     6.9142   6.9532   7.2949   7.3225   7.3861   7.4643   7.5097   7.5547
     7.6623   8.1395   8.1422   8.1706  11.9827  13.7289  13.7371  13.9590
    14.6429  15.0759  15.1368  15.8701  16.0481  16.0858  16.4805  16.5051
    16.5255  16.7253

     occupation numbers 
     1.0000   1.0000   1.0000   1.0000   1.0000   1.0000   1.0000   1.0000
     1.0000   1.0000   1.0000   1.0000   1.0000   1.0000   1.0000   1.0000
     1.0000   1.0000   1.0000   1.0000   1.0000   1.0000   1.0000   1.0000
     1.0000   1.0000   1.0000   1.0000   1.0000   1.0000   1.0000   1.0000
     1.0000   1.0000   1.0000   1.0000   1.0000   1.0000   1.0000   1.0000
     1.0000   1.0000   1.0000   1.0000   1.0000   1.0000   1.0000   1.0000
     1.0000   1.0000   1.0000   1.0000   1.0000   1.0000   1.0000   1.0000
     1.0000   1.0000   1.0000   1.0000   1.0000   1.0000   1.0000   1.0000
     1.0000   1.0000   1.0000   1.0000   1.0000   1.0000   1.0000   1.0000
     1.0000   1.0000   1.0000   1.0000   1.0000   1.0000   1.0000   1.0000
     1.0000   1.0000   1.0000   1.0000   1.0000   1.0000   1.0000   1.0000
     1.0000   1.0000   1.0000   1.0000   1.0000   1.0000   1.0000   1.0000
     1.0000   1.0000   1.0000   1.0000   1.0000   1.0000   1.0000   1.0000
     1.0000   1.0000   1.0000   1.0000   1.0000   1.0000   1.0000   1.0000
     1.0000   1.0000   1.0000   1.0000   0.0000   0.0000   0.0000   0.0000
     0.0000   0.0000   0.0000   0.0000   0.0000   0.0000   0.0000   0.0000
     0.0000   0.0000

          k = 0.0000 0.4781 0.2337 ( 34704 PWs)   bands (ev):

   -80.2634 -80.2630 -80.2618 -80.2613 -47.1265 -47.1257 -47.1248 -47.1241
   -46.2808 -46.2806 -46.2794 -46.2787 -45.5583 -45.5576 -45.5566 -45.5559
   -42.2783 -42.2782 -42.2718 -42.2717 -14.7244 -14.6957 -14.5718 -14.5145
   -14.3579 -14.3536 -14.3123 -14.3079 -14.2947 -14.2923 -14.2428 -14.2421
   -14.1175 -14.0495 -13.8751 -13.8447 -11.6212 -11.6173 -11.5813 -11.5721
   -11.5269 -11.5049 -11.4892 -11.3975 -11.3161 -11.2958 -11.2809 -11.2623
[...]
     atom    2 type  2   force =     0.00000000    0.00000000    0.00000000
     atom    3 type  2   force =     0.00000000   -0.00000000    0.00000000
     atom    4 type  2   force =     0.00000000   -0.00000000    0.00000000
     atom    5 type  1   force =    -0.05472458    0.00000000    0.04664885
     atom    6 type  1   force =     0.05470697    0.00000000    0.04664935
     atom    7 type  1   force =     0.05472458   -0.00000000   -0.04664885
     atom    8 type  1   force =    -0.05470697    0.00000000   -0.04664935
     atom    9 type  4   force =    -0.00410615    0.00000000    0.00530010
     atom   10 type  4   force =     0.00419422    0.00000000    0.00522559
     atom   11 type  4   force =     0.00410615    0.00000000   -0.00530010
     atom   12 type  4   force =    -0.00419422    0.00000000   -0.00522559
     atom   13 type  3   force =     0.15440374    0.00000000   -1.46391839
     atom   14 type  3   force =    -0.15438937    0.00000000   -1.46392618
     atom   15 type  3   force =    -0.15440374    0.00000000    1.46391839
     atom   16 type  3   force =     0.15438937    0.00000000    1.46392618
     atom   17 type  3   force =     1.18289455    0.00000000   -0.66552010
     atom   18 type  3   force =    -1.18290370    0.00000000   -0.66556595
     atom   19 type  3   force =    -1.18289455    0.00000000    0.66552010
     atom   20 type  3   force =     1.18290370    0.00000000    0.66556595
     atom   21 type  3   force =    -0.64467318   -1.00129972    0.69989348
     atom   22 type  3   force =     0.64470625    1.00131358    0.69988188
     atom   23 type  3   force =     0.64467318   -1.00129972   -0.69989348
     atom   24 type  3   force =    -0.64470625    1.00131358   -0.69988188
     atom   25 type  3   force =     0.64467318    1.00129972   -0.69989348
     atom   26 type  3   force =    -0.64470625   -1.00131358   -0.69988188
     atom   27 type  3   force =    -0.64467318    1.00129972    0.69989348
     atom   28 type  3   force =     0.64470625   -1.00131358    0.69988188
     The ionic contribution  to forces
     atom    1 type  2   force =     0.00044626   -0.00007378    0.00021744
     atom    2 type  2   force =    -0.00024810    0.00020427    0.00005173
     atom    3 type  2   force =     0.00057134    0.00020131    0.00027946
     atom    4 type  2   force =    -0.00012303   -0.00007675   -0.00001029
     atom    5 type  1   force =     3.19941806   -0.00080604   -1.34141664
     atom    6 type  1   force =    -3.19742495    0.00078681   -1.34101132
     atom    7 type  1   force =    -3.19986538    0.00078681    1.34149286
     atom    8 type  1   force =     3.19756050   -0.00080603    1.34084762
     atom    9 type  4   force =    -0.85217924   -0.00018849    1.99772735
     atom   10 type  4   force =     0.85318883    0.00017562    1.99705375
     atom   11 type  4   force =     0.85229960    0.00017562   -1.99781246
     atom   12 type  4   force =    -0.85333138   -0.00018849   -1.99701420
     atom   13 type  3   force =    -3.80842990   -0.00025752    1.52164645
     atom   14 type  3   force =     3.80919590    0.00019835    1.52219391
     atom   15 type  3   force =     3.80868069    0.00019835   -1.52160637
     atom   16 type  3   force =    -3.80935358   -0.00025751   -1.52217109
     atom   17 type  3   force =    -1.65835992   -0.00025177    2.78737168
     atom   18 type  3   force =     1.65962045    0.00019178    2.78750079
     atom   19 type  3   force =     1.65814582    0.00019178   -2.78743915
     atom   20 type  3   force =    -1.65929627   -0.00025177   -2.78744131
     atom   21 type  3   force =     0.74017436    2.63485521   -1.45380745
     atom   22 type  3   force =    -0.73954215   -2.63462056   -1.45408304
     atom   23 type  3   force =    -0.74039910    2.63524425    1.45336373
     atom   24 type  3   force =     0.73950904   -2.63515012    1.45386138
     atom   25 type  3   force =    -0.74028167   -2.63479338    1.45358722
     atom   26 type  3   force =     0.73940549    2.63472297    1.45407316
     atom   27 type  3   force =     0.74027791   -2.63528236   -1.45359567
     atom   28 type  3   force =    -0.73965958    2.63507143   -1.45385955
     The local contribution  to forces
     atom    1 type  2   force =    -0.00000000   -0.00000000    0.00000000
     atom    2 type  2   force =    -0.00470873   -0.00016426   -0.00221571
     atom    3 type  2   force =     0.00008535   -0.00186318    0.00004188
     atom    4 type  2   force =    -0.00462339   -0.00169893   -0.00225759
     atom    5 type  1   force =    -3.15606826   -0.00872611    1.28690260
     atom    6 type  1   force =     3.13398124   -0.00218153    1.28624240
     atom    7 type  1   force =     3.13436184   -0.00218153   -1.29734859
     atom    8 type  1   force =    -3.15220671   -0.00872610   -1.29697610
     atom    9 type  4   force =     0.83471212   -0.00001632   -1.97028628
     atom   10 type  4   force =    -0.83573189   -0.00000409   -1.96951806
     atom   11 type  4   force =    -0.83474259   -0.00000409    1.97035393
     atom   12 type  4   force =     0.83574327   -0.00001630    1.96967385
     atom   13 type  3   force =     3.65054419   -0.00203876   -0.01032122
     atom   14 type  3   force =    -3.65599794   -0.00050969   -0.01108775
     atom   15 type  3   force =    -3.65512713   -0.00050969    0.00820588
     atom   16 type  3   force =     3.65111435   -0.00203877    0.00843033
     atom   17 type  3   force =     0.40294187   -0.00205201   -2.11179845
     atom   18 type  3   force =    -0.40806225   -0.00051301   -2.11206806
     atom   19 type  3   force =    -0.40683137   -0.00051300    2.10969922
     atom   20 type  3   force =     0.40391050   -0.00205203    2.10941722
     atom   21 type  3   force =    -0.04999862   -1.55365079    0.72355238
     atom   22 type  3   force =     0.04430793    1.55164167    0.72393607
     atom   23 type  3   force =     0.04494975   -1.55281683   -0.72592439
     atom   24 type  3   force =    -0.04936404    1.55026527   -0.72598238
     atom   25 type  3   force =     0.04500378    1.55197240   -0.72585674
     atom   26 type  3   force =    -0.04914796   -1.55364298   -0.72625302
     atom   27 type  3   force =    -0.05021471    1.55027310    0.72328174
     atom   28 type  3   force =     0.04425391   -1.55248609    0.72400372
     The core correction contribution to forces
     atom    1 type  2   force =     0.00000000    0.00000000    0.00000000
     atom    2 type  2   force =     0.00000000    0.00000000    0.00000000
     atom    3 type  2   force =     0.00000000    0.00000000    0.00000000
     atom    4 type  2   force =     0.00000000    0.00000000    0.00000000
     atom    5 type  1   force =     0.00438607    0.00026572   -0.00101614
     atom    6 type  1   force =    -0.00369022    0.00006644   -0.00103116
     atom    7 type  1   force =    -0.00362089    0.00006645    0.00141559
     atom    8 type  1   force =     0.00431441    0.00026572    0.00140226
     atom    9 type  4   force =     0.00025060    0.00000607   -0.00306496
     atom   10 type  4   force =    -0.00024260    0.00000152   -0.00305777
     atom   11 type  4   force =    -0.00023493    0.00000152    0.00307330
     atom   12 type  4   force =     0.00025847    0.00000607    0.00306655
     atom   13 type  3   force =    -0.00198196   -0.00000118    0.01169017
     atom   14 type  3   force =     0.00197785   -0.00000029    0.01169012
     atom   15 type  3   force =     0.00197767   -0.00000029   -0.01169451
     atom   16 type  3   force =    -0.00198141   -0.00000118   -0.01169312
     atom   17 type  3   force =    -0.00866314   -0.00000115    0.00605057
     atom   18 type  3   force =     0.00865517   -0.00000029    0.00604975
     atom   19 type  3   force =     0.00865689   -0.00000029   -0.00605157
     atom   20 type  3   force =    -0.00866220   -0.00000115   -0.00605239
     atom   21 type  3   force =     0.00482006    0.00731650   -0.00579735
     atom   22 type  3   force =    -0.00482443   -0.00732037   -0.00579844
     atom   23 type  3   force =    -0.00482329    0.00731893    0.00579640
     atom   24 type  3   force =     0.00482067   -0.00732101    0.00579527
     atom   25 type  3   force =    -0.00482347   -0.00732005    0.00579647
     atom   26 type  3   force =     0.00481996    0.00731652    0.00579501
     atom   27 type  3   force =     0.00482077   -0.00732100   -0.00579761
     atom   28 type  3   force =    -0.00482425    0.00731925   -0.00579838
     The Hubbard contrib.    to forces
     atom    1 type  2   force =     0.00000000    0.00000000    0.00000000
     atom    2 type  2   force =     0.00000000    0.00000000    0.00000000
     atom    3 type  2   force =     0.00000000    0.00000000    0.00000000
     atom    4 type  2   force =     0.00000000    0.00000000    0.00000000
     atom    5 type  1   force =     0.00000000    0.00000000    0.00000000
     atom    6 type  1   force =     0.00000000    0.00000000    0.00000000
     atom    7 type  1   force =     0.00000000    0.00000000    0.00000000
     atom    8 type  1   force =     0.00000000    0.00000000    0.00000000
     atom    9 type  4   force =     0.00000000    0.00000000    0.00000000
     atom   10 type  4   force =     0.00000000    0.00000000    0.00000000
     atom   11 type  4   force =     0.00000000    0.00000000    0.00000000
     atom   12 type  4   force =     0.00000000    0.00000000    0.00000000
     atom   13 type  3   force =     0.00000000    0.00000000    0.00000000
     atom   14 type  3   force =     0.00000000    0.00000000    0.00000000
     atom   15 type  3   force =     0.00000000    0.00000000    0.00000000
     atom   16 type  3   force =     0.00000000    0.00000000    0.00000000
     atom   17 type  3   force =     0.00000000    0.00000000    0.00000000
     atom   18 type  3   force =     0.00000000    0.00000000    0.00000000
     atom   19 type  3   force =     0.00000000    0.00000000    0.00000000
     atom   20 type  3   force =     0.00000000    0.00000000    0.00000000
     atom   21 type  3   force =     0.00000000    0.00000000    0.00000000
     atom   22 type  3   force =     0.00000000    0.00000000    0.00000000
     atom   23 type  3   force =     0.00000000    0.00000000    0.00000000
     atom   24 type  3   force =     0.00000000    0.00000000    0.00000000
     atom   25 type  3   force =     0.00000000    0.00000000    0.00000000
     atom   26 type  3   force =     0.00000000    0.00000000    0.00000000
     atom   27 type  3   force =     0.00000000    0.00000000    0.00000000
     atom   28 type  3   force =     0.00000000    0.00000000    0.00000000
     The SCF correction term to forces
     atom    1 type  2   force =    -0.00000000    0.00000000   -0.00000000
     atom    2 type  2   force =     0.00000000   -0.00000000    0.00000000
     atom    3 type  2   force =    -0.00000000    0.00000000    0.00000000
     atom    4 type  2   force =     0.00000000    0.00000000    0.00000000
     atom    5 type  1   force =    -0.00000072    0.00000000    0.00000152
     atom    6 type  1   force =    -0.00000465   -0.00000000    0.00000035
     atom    7 type  1   force =     0.00000073    0.00000000   -0.00000152
     atom    8 type  1   force =     0.00000464   -0.00000000   -0.00000036
     atom    9 type  4   force =    -0.00000377    0.00000000    0.00000019
     atom   10 type  4   force =    -0.00000142   -0.00000000    0.00000053
     atom   11 type  4   force =     0.00000377    0.00000000   -0.00000019
     atom   12 type  4   force =     0.00000142   -0.00000000   -0.00000053
     atom   13 type  3   force =    -0.00000536    0.00000000   -0.00000351
     atom   14 type  3   force =    -0.00000459   -0.00000000    0.00000054
     atom   15 type  3   force =     0.00000536    0.00000000    0.00000351
     atom   16 type  3   force =     0.00000459   -0.00000000   -0.00000054
     atom   17 type  3   force =     0.00000413   -0.00000000    0.00000159
     atom   18 type  3   force =     0.00000443   -0.00000000   -0.00000083
     atom   19 type  3   force =    -0.00000413   -0.00000000   -0.00000159
     atom   20 type  3   force =    -0.00000443   -0.00000000    0.00000083
     atom   21 type  3   force =    -0.00000218    0.00000515    0.00000265
     atom   22 type  3   force =    -0.00000166    0.00000537   -0.00000216
     atom   23 type  3   force =     0.00000218    0.00000515   -0.00000265
     atom   24 type  3   force =     0.00000166    0.00000537    0.00000216
     atom   25 type  3   force =     0.00000218   -0.00000515   -0.00000265
     atom   26 type  3   force =     0.00000166   -0.00000537    0.00000216
     atom   27 type  3   force =    -0.00000218   -0.00000515    0.00000265
     atom   28 type  3   force =    -0.00000166   -0.00000537   -0.00000216

     Total force =     0.376214     Total SCF correction =     0.000024


     Computing stress (Cartesian axis) and pressure


     negative rho (up, down):  0.000E+00 4.735E-04
          total   stress  (Ry/bohr**3)                   (kbar)     P=      166.48
   0.00113252   0.00000000   0.00000005          166.60        0.00        0.01
   0.00000000   0.00122249   0.00000000            0.00      179.83        0.00
   0.00000005   0.00000000   0.00104019            0.01        0.00      153.02

     kinetic stress (kbar)  34142.32      0.00     -0.00
                                0.00  34033.58      0.00
                               -0.00      0.00  34107.75

     local   stress (kbar)  -3968.07     -0.11      0.02
                               -0.11  -4905.47     -0.00
                                0.02     -0.00  -1164.06

     nonloc. stress (kbar) -10214.96      0.00      0.00
                                0.00 -10292.61      0.00
                                0.00      0.00 -10140.24

     hartree stress (kbar)  15363.46      0.00     -0.03
                                0.00  15791.33      0.00
                               -0.03      0.00  13963.09

     exc-cor stress (kbar)  -3862.75      0.00      0.00
                                0.00  -3868.06     -0.00
                                0.00     -0.00  -3858.23

     corecor stress (kbar)  -3284.21     -0.00     -0.00
                               -0.00  -3269.51      0.00
                               -0.00      0.00  -3293.73

     ewald   stress (kbar) -28009.19      0.10      0.01
                                0.10 -27309.42      0.00
                                0.01      0.00 -29461.56

     hubbard stress (kbar)      0.00      0.00      0.00
                                0.00      0.00      0.00
                                0.00      0.00      0.00

     DFT-D   stress (kbar)      0.00      0.00      0.00
                                0.00      0.00      0.00
                                0.00      0.00      0.00

     XDM     stress (kbar)      0.00      0.00      0.00
                                0.00      0.00      0.00
                                0.00      0.00      0.00

     dft-nl  stress (kbar)      0.00      0.00      0.00
                                0.00      0.00      0.00
                                0.00      0.00      0.00

     TS-vdW  stress (kbar)      0.00      0.00      0.00
                                0.00      0.00      0.00
                                0.00      0.00      0.00



     init_run     :   1361.96s CPU   1626.26s WALL (       1 calls)
     electrons    : 144133.61s CPU 175247.03s WALL (       1 calls)
     forces       :    245.00s CPU    246.45s WALL (       1 calls)
     stress       :   1153.91s CPU   1249.74s WALL (       1 calls)

     Called by init_run:
     wfcinit      :   1342.96s CPU   1601.41s WALL (       1 calls)
     wfcinit:atom :      1.51s CPU      1.82s WALL (     184 calls)
     wfcinit:wfcr :   1335.00s CPU   1591.74s WALL (     184 calls)
     potinit      :      7.62s CPU      9.88s WALL (       1 calls)
     hinit0       :      7.39s CPU      8.62s WALL (       1 calls)

     Called by electrons:
     c_bands      : 120619.59s CPU 146893.23s WALL (      43 calls)
     sum_band     :  23124.50s CPU  27842.59s WALL (      43 calls)
     v_of_rho     :    105.62s CPU    133.50s WALL (      44 calls)
     v_h          :      6.93s CPU      9.04s WALL (      44 calls)
     v_xc         :    104.26s CPU    130.07s WALL (      46 calls)
     newd         :    154.05s CPU    217.63s WALL (      44 calls)
     PAW_pot      :     44.44s CPU     54.51s WALL (      44 calls)
     mix_rho      :     64.77s CPU     81.21s WALL (      43 calls)

     Called by c_bands:
     init_us_2    :    212.08s CPU    266.61s WALL (   16376 calls)
     cegterg      : 119494.72s CPU 145471.64s WALL (    7912 calls)

     Called by sum_band:
     sum_band:wei :      0.51s CPU      0.78s WALL (      43 calls)
     sum_band:loo :  22730.33s CPU  27317.43s WALL (      43 calls)
     sum_band:buf :     65.43s CPU     89.38s WALL (    7912 calls)
     sum_band:ini :     88.62s CPU    102.91s WALL (    7912 calls)
     sum_band:cal :   1848.19s CPU   2209.74s WALL (    7912 calls)
     sum_band:bec :      9.62s CPU     10.36s WALL (    7912 calls)
     addusdens    :    322.15s CPU    445.78s WALL (      43 calls)
     addusd:skk   :      2.09s CPU      2.74s WALL (     129 calls)
     addusd:dgemm :    101.22s CPU    162.60s WALL (     258 calls)
     addusd:qvan2 :    213.32s CPU    272.63s WALL (     258 calls)

     Called by *egterg:
     cdiaghg      :   2913.46s CPU   3607.35s WALL (   27996 calls)
     cegterg:over :   5510.04s CPU   6563.35s WALL (   20084 calls)
     cegterg:upda :   1207.28s CPU   1516.78s WALL (   20084 calls)
     cegterg:last :   2555.03s CPU   3209.71s WALL (   13841 calls)
     h_psi        : 101284.85s CPU 123380.61s WALL (   28180 calls)
     s_psi        :   2426.80s CPU   3028.08s WALL (   28180 calls)
     g_psi        :     18.00s CPU     22.03s WALL (   20084 calls)

     Called by h_psi:
     h_psi:calbec :   4757.97s CPU   5734.40s WALL (   28180 calls)
     vloc_psi     :  93902.72s CPU 114310.57s WALL (   28180 calls)
     add_vuspsi   :   2523.12s CPU   3211.73s WALL (   28180 calls)

     General routines
     calbec       :   7146.73s CPU   8491.59s WALL (   37012 calls)
     fft          :    119.63s CPU    148.69s WALL (    1138 calls)
     ffts         :     13.48s CPU     16.45s WALL (     174 calls)
     fftw         : 114181.30s CPU 138735.33s WALL ( 5751290 calls)
     interpolate  :     15.59s CPU     19.46s WALL (      88 calls)

     Parallel routines
     fft_scatt_xy :    544.80s CPU    547.99s WALL ( 5752602 calls)
     fft_scatt_yz : 110961.24s CPU 135487.53s WALL ( 5752602 calls)

     PAW routines
     PAW_pot      :     44.44s CPU     54.51s WALL (      44 calls)
     PAW_symme    :      4.86s CPU      5.73s WALL (      87 calls)

     PWSCF        :   1d16h48m CPU   2d 1h33m WALL


   This run was terminated on:  21: 0:12   7Feb2023            

=------------------------------------------------------------------------------=
   JOB DONE.
=------------------------------------------------------------------------------=
Note: The following floating-point exceptions are signalling: IEEE_UNDERFLOW_FLAG IEEE_DENORMAL
Note: The following floating-point exceptions are signalling: IEEE_DENORMAL
Note: The following floating-point exceptions are signalling: IEEE_DENORMAL
Note: The following floating-point exceptions are signalling: IEEE_DENORMAL
Note: The following floating-point exceptions are signalling: IEEE_DENORMAL
Note: The following floating-point exceptions are signalling: IEEE_DENORMAL
Note: The following floating-point exceptions are signalling: IEEE_DENORMAL
Note: The following floating-point exceptions are signalling: IEEE_DENORMAL
Note: The following floating-point exceptions are signalling: IEEE_INVALID_FLAG IEEE_DENORMAL
