
     Program PWSCF v.6.7MaX starts on  5Feb2023 at 16:14:13 

     This program is part of the open-source Quantum ESPRESSO suite
     for quantum simulation of materials; please cite
         "P. Giannozzi et al., J. Phys.:Condens. Matter 21 395502 (2009);
         "P. Giannozzi et al., J. Phys.:Condens. Matter 29 465901 (2017);
          URL http://www.quantum-espresso.org", 
     in publications or presentations arising from this work. More details at
     http://www.quantum-espresso.org/quote

     Parallel version (MPI), running on    12 processors

     MPI processes distributed on     1 nodes
     R & G space division:  proc/nbgrp/npool/nimage =      12
     Reading input from scale_3d-01.in

     Current dimensions of program PWSCF are:
     Max number of different atomic species (ntypx) = 10
     Max number of k-points (npk) =  40000
     Max angular momentum in pseudopotentials (lmaxx) =  3
     Message from routine read_pp_mesh:
     mesh size missing, using the one in header
     file Fe.pbe-spn-kjpaw_psl.0.2.1.UPF: wavefunction(s)  3D renormalized
     file O.pbe-n-kjpaw_psl.0.1.UPF: wavefunction(s)  2P renormalized

     Subspace diagonalization in iterative solution of the eigenvalue problem:
     a serial algorithm will be used

     Message from routine setup:
     using ibrav=0 with symmetry is DISCOURAGED, use correct ibrav instead

     Parallelization info
     --------------------
     sticks:   dense  smooth     PW     G-vecs:    dense   smooth      PW
     Min        1546     574    155                97469    21966    3095
     Max        1548     575    156                97470    21968    3096
     Sum       18565    6893   1863              1169635   263601   37143



     bravais-lattice index     =            0
     lattice parameter (alat)  =      19.0096  a.u.
     unit-cell volume          =    1951.4432 (a.u.)^3
     number of atoms/cell      =           28
     number of atomic types    =            4
     number of electrons       =       216.00
     number of Kohn-Sham states=          130
     kinetic-energy cutoff     =     100.0000  Ry
     charge density cutoff     =    1080.0000  Ry
     scf convergence threshold =      2.0E-10
     mixing beta               =       0.4000
     number of iterations used =            8  plain     mixing
     Exchange-correlation= PBE
                           (   1   4   3   4   0   0   0)

     celldm(1)=  19.009555  celldm(2)=   0.000000  celldm(3)=   0.000000
     celldm(4)=   0.000000  celldm(5)=   0.000000  celldm(6)=   0.000000

     crystal axes: (cart. coord. in units of alat)
               a(1) = (   1.000000   0.000000   0.000000 )  
               a(2) = (   0.000000   0.597590   0.000000 )  
               a(3) = (   0.000000   0.000000   0.475375 )  

     reciprocal axes: (cart. coord. in units 2 pi/alat)
               b(1) = (  1.000000  0.000000  0.000000 )  
               b(2) = (  0.000000  1.673388  0.000000 )  
               b(3) = (  0.000000  0.000000  2.103600 )  


     PseudoPot. # 1 for Fe read from file:
     /opt/QEpot/SSSP_precision_pseudos/Fe.pbe-spn-kjpaw_psl.0.2.1.UPF
     MD5 check sum: e86618425769142926afa95317d90200
     Pseudo is Projector augmented-wave + core cor, Zval = 16.0
     Generated using "atomic" code by A. Dal Corso  v.5.0.99 svn rev. 10869
     Shape of augmentation charge: PSQ
     Using radial grid of 1191 points,  6 beta functions with: 
                l(1) =   0
                l(2) =   0
                l(3) =   1
                l(4) =   1
                l(5) =   2
                l(6) =   2
     Q(r) pseudized with 0 coefficients 


     PseudoPot. # 2 for Na read from file:
     /opt/QEpot/SSSP_precision_pseudos/Na_ONCV_PBE-1.0.oncvpsp.upf
     MD5 check sum: 24a298df0a6742ae313db96548fdb2a4
     Pseudo is Norm-conserving, Zval =  9.0
     Generated using ONCVPSP code by D. R. Hamann
     Using radial grid of 1992 points,  4 beta functions with: 
                l(1) =   0
                l(2) =   0
                l(3) =   1
                l(4) =   1

     PseudoPot. # 3 for O  read from file:
     /opt/QEpot/SSSP_precision_pseudos/O.pbe-n-kjpaw_psl.0.1.UPF
     MD5 check sum: 0234752ac141de4415c5fc33072bef88
     Pseudo is Projector augmented-wave + core cor, Zval =  6.0
     Generated using "atomic" code by A. Dal Corso  v.5.0.99 svn rev. 10869
     Shape of augmentation charge: BESSEL
     Using radial grid of 1095 points,  4 beta functions with: 
                l(1) =   0
                l(2) =   0
                l(3) =   1
                l(4) =   1
     Q(r) pseudized with 0 coefficients 


     PseudoPot. # 4 for P  read from file:
     /opt/QEpot/SSSP_precision_pseudos/P.pbe-n-rrkjus_psl.1.0.0.UPF
     MD5 check sum: 8b930f418f0a4573dca56cd030ffe088
     Pseudo is Ultrasoft + core correction, Zval =  5.0
     Generated using "atomic" code by A. Dal Corso  v.5.1
     Using radial grid of 1147 points,  6 beta functions with: 
                l(1) =   0
                l(2) =   0
                l(3) =   1
                l(4) =   1
                l(5) =   2
                l(6) =   2
     Q(r) pseudized with 0 coefficients 


     atomic species   valence    mass     pseudopotential
        Fe            16.00    55.84500     Fe( 1.00)
        Na             9.00    22.98977     Na( 1.00)
        O              6.00    15.99940     O ( 1.00)
        P              5.00    30.97376     P ( 1.00)

     Starting magnetic structure 
     atomic species   magnetization
        Fe           0.312
        Na           0.000
        O            0.000
        P            0.000

      4 Sym. Ops., with inversion, found ( 2 have fractional translation)


                                    s                        frac. trans.

      isym =  1     identity                                     

 cryst.   s( 1) = (     1          0          0      )
                  (     0          1          0      )
                  (     0          0          1      )

 cart.    s( 1) = (  1.0000000  0.0000000  0.0000000 )
                  (  0.0000000  1.0000000  0.0000000 )
                  (  0.0000000  0.0000000  1.0000000 )


      isym =  2     180 deg rotation - cart. axis [0,1,0]        

 cryst.   s( 2) = (    -1          0          0      )    f =(  0.0000000 )
                  (     0          1          0      )       ( -0.4999980 )
                  (     0          0         -1      )       (  0.0000000 )

 cart.    s( 2) = ( -1.0000000  0.0000000  0.0000000 )    f =(  0.0000000 )
                  (  0.0000000  1.0000000  0.0000000 )       ( -0.2987938 )
                  (  0.0000000  0.0000000 -1.0000000 )       (  0.0000000 )


      isym =  3     inversion                                    

 cryst.   s( 3) = (    -1          0          0      )
                  (     0         -1          0      )
                  (     0          0         -1      )

 cart.    s( 3) = ( -1.0000000  0.0000000  0.0000000 )
                  (  0.0000000 -1.0000000  0.0000000 )
                  (  0.0000000  0.0000000 -1.0000000 )


      isym =  4     inv. 180 deg rotation - cart. axis [0,1,0]   

 cryst.   s( 4) = (     1          0          0      )    f =(  0.0000000 )
                  (     0         -1          0      )       (  0.4999980 )
                  (     0          0          1      )       (  0.0000000 )

 cart.    s( 4) = (  1.0000000  0.0000000  0.0000000 )    f =(  0.0000000 )
                  (  0.0000000 -1.0000000  0.0000000 )       (  0.2987938 )
                  (  0.0000000  0.0000000  1.0000000 )       (  0.0000000 )


   Cartesian axes

     site n.     atom                  positions (alat units)
         1           Na  tau(   1) = (   0.0000000   0.0000000   0.0000000  )
         2           Na  tau(   2) = (   0.5000030   0.0000000   0.2376892  )
         3           Na  tau(   3) = (   0.0000000   0.2987962   0.0000000  )
         4           Na  tau(   4) = (   0.5000030   0.2987962   0.2376892  )
         5           Fe  tau(   5) = (   0.2870220   0.4481948   0.4689037  )
         6           Fe  tau(   6) = (   0.2129810   0.1493981   0.2312146  )
         7           Fe  tau(   7) = (   0.7129840   0.1493981   0.0064746  )
         8           Fe  tau(   8) = (   0.7870240   0.4481948   0.2441638  )
         9           P   tau(   9) = (   0.1083410   0.4481948   0.2104074  )
        10           P   tau(  10) = (   0.3916620   0.1493981   0.4480965  )
        11           P   tau(  11) = (   0.8916650   0.1493981   0.2649710  )
        12           P   tau(  12) = (   0.6083440   0.4481948   0.0272818  )
        13           O   tau(  13) = (   0.1140120   0.4481948   0.3576839  )
        14           O   tau(  14) = (   0.3859910   0.1493981   0.1199948  )
        15           O   tau(  15) = (   0.8859940   0.1493981   0.1176949  )
        16           O   tau(  16) = (   0.6140150   0.4481948   0.3553841  )
        17           O   tau(  17) = (   0.4685140   0.4481948   0.0765925  )
        18           O   tau(  18) = (   0.0314890   0.1493981   0.3142817  )
        19           O   tau(  19) = (   0.5314920   0.1493981   0.3987858  )
        20           O   tau(  20) = (   0.9685170   0.4481948   0.1610967  )
        21           O   tau(  21) = (   0.1755910   0.5644936   0.1482287  )
        22           O   tau(  22) = (   0.3244120   0.0330993   0.3859179  )
        23           O   tau(  23) = (   0.8244150   0.2656968   0.3271496  )
        24           O   tau(  24) = (   0.6755940   0.3318961   0.0894604  )
        25           O   tau(  25) = (   0.8244150   0.0330993   0.3271496  )
        26           O   tau(  26) = (   0.6755940   0.5644936   0.0894604  )
        27           O   tau(  27) = (   0.1755910   0.3318961   0.1482287  )
        28           O   tau(  28) = (   0.3244120   0.2656968   0.3859179  )

   Crystallographic axes

     site n.     atom                  positions (cryst. coord.)
         1           Na  tau(   1) = (  0.0000000  0.0000000  0.0000000  )
         2           Na  tau(   2) = (  0.5000030  0.0000000  0.5000030  )
         3           Na  tau(   3) = (  0.0000000  0.5000020  0.0000000  )
         4           Na  tau(   4) = (  0.5000030  0.5000020  0.5000030  )
         5           Fe  tau(   5) = (  0.2870220  0.7500040  0.9863860  )
         6           Fe  tau(   6) = (  0.2129810  0.2500010  0.4863830  )
         7           Fe  tau(   7) = (  0.7129840  0.2500010  0.0136200  )
         8           Fe  tau(   8) = (  0.7870240  0.7500040  0.5136230  )
         9           P   tau(   9) = (  0.1083410  0.7500040  0.4426130  )
        10           P   tau(  10) = (  0.3916620  0.2500010  0.9426160  )
        11           P   tau(  11) = (  0.8916650  0.2500010  0.5573930  )
        12           P   tau(  12) = (  0.6083440  0.7500040  0.0573900  )
        13           O   tau(  13) = (  0.1140120  0.7500040  0.7524240  )
        14           O   tau(  14) = (  0.3859910  0.2500010  0.2524210  )
        15           O   tau(  15) = (  0.8859940  0.2500010  0.2475830  )
        16           O   tau(  16) = (  0.6140150  0.7500040  0.7475860  )
        17           O   tau(  17) = (  0.4685140  0.7500040  0.1611200  )
        18           O   tau(  18) = (  0.0314890  0.2500010  0.6611230  )
        19           O   tau(  19) = (  0.5314920  0.2500010  0.8388860  )
        20           O   tau(  20) = (  0.9685170  0.7500040  0.3388830  )
        21           O   tau(  21) = (  0.1755910  0.9446170  0.3118140  )
        22           O   tau(  22) = (  0.3244120  0.0553880  0.8118170  )
        23           O   tau(  23) = (  0.8244150  0.4446140  0.6881920  )
        24           O   tau(  24) = (  0.6755940  0.5553910  0.1881890  )
        25           O   tau(  25) = (  0.8244150  0.0553880  0.6881920  )
        26           O   tau(  26) = (  0.6755940  0.9446170  0.1881890  )
        27           O   tau(  27) = (  0.1755910  0.5553910  0.3118140  )
        28           O   tau(  28) = (  0.3244120  0.4446140  0.8118170  )

     number of k points=    92  Marzari-Vanderbilt smearing, width (Ry)=  0.0073
                       cart. coord. in units 2pi/alat
        k(    1) = (   0.0000000   0.0000000   0.0000000), wk =   0.0031746
        k(    2) = (   0.0000000   0.0000000   0.2337334), wk =   0.0063492
        k(    3) = (   0.0000000   0.0000000   0.4674667), wk =   0.0063492
        k(    4) = (   0.0000000   0.0000000   0.7012001), wk =   0.0063492
        k(    5) = (   0.0000000   0.0000000   0.9349334), wk =   0.0063492
        k(    6) = (   0.0000000   0.2390555   0.0000000), wk =   0.0063492
        k(    7) = (   0.0000000   0.2390555   0.2337334), wk =   0.0126984
        k(    8) = (   0.0000000   0.2390555   0.4674667), wk =   0.0126984
        k(    9) = (   0.0000000   0.2390555   0.7012001), wk =   0.0126984
        k(   10) = (   0.0000000   0.2390555   0.9349334), wk =   0.0126984
        k(   11) = (   0.0000000   0.4781110   0.0000000), wk =   0.0063492
        k(   12) = (   0.0000000   0.4781110   0.2337334), wk =   0.0126984
        k(   13) = (   0.0000000   0.4781110   0.4674667), wk =   0.0126984
        k(   14) = (   0.0000000   0.4781110   0.7012001), wk =   0.0126984
        k(   15) = (   0.0000000   0.4781110   0.9349334), wk =   0.0126984
        k(   16) = (   0.0000000   0.7171664   0.0000000), wk =   0.0063492
        k(   17) = (   0.0000000   0.7171664   0.2337334), wk =   0.0126984
        k(   18) = (   0.0000000   0.7171664   0.4674667), wk =   0.0126984
        k(   19) = (   0.0000000   0.7171664   0.7012001), wk =   0.0126984
        k(   20) = (   0.0000000   0.7171664   0.9349334), wk =   0.0126984
        k(   21) = (   0.2000000   0.0000000   0.0000000), wk =   0.0063492
        k(   22) = (   0.2000000   0.0000000   0.2337334), wk =   0.0063492
        k(   23) = (   0.2000000   0.0000000   0.4674667), wk =   0.0063492
        k(   24) = (   0.2000000   0.0000000   0.7012001), wk =   0.0063492
        k(   25) = (   0.2000000   0.0000000   0.9349334), wk =   0.0063492
        k(   26) = (   0.2000000   0.2390555   0.0000000), wk =   0.0126984
        k(   27) = (   0.2000000   0.2390555   0.2337334), wk =   0.0126984
        k(   28) = (   0.2000000   0.2390555   0.4674667), wk =   0.0126984
        k(   29) = (   0.2000000   0.2390555   0.7012001), wk =   0.0126984
        k(   30) = (   0.2000000   0.2390555   0.9349334), wk =   0.0126984
        k(   31) = (   0.2000000   0.4781110   0.0000000), wk =   0.0126984
        k(   32) = (   0.2000000   0.4781110   0.2337334), wk =   0.0126984
        k(   33) = (   0.2000000   0.4781110   0.4674667), wk =   0.0126984
        k(   34) = (   0.2000000   0.4781110   0.7012001), wk =   0.0126984
        k(   35) = (   0.2000000   0.4781110   0.9349334), wk =   0.0126984
        k(   36) = (   0.2000000   0.7171664   0.0000000), wk =   0.0126984
        k(   37) = (   0.2000000   0.7171664   0.2337334), wk =   0.0126984
        k(   38) = (   0.2000000   0.7171664   0.4674667), wk =   0.0126984
        k(   39) = (   0.2000000   0.7171664   0.7012001), wk =   0.0126984
        k(   40) = (   0.2000000   0.7171664   0.9349334), wk =   0.0126984
        k(   41) = (   0.4000000   0.0000000   0.0000000), wk =   0.0063492
        k(   42) = (   0.4000000   0.0000000   0.2337334), wk =   0.0063492
        k(   43) = (   0.4000000   0.0000000   0.4674667), wk =   0.0063492
        k(   44) = (   0.4000000   0.0000000   0.7012001), wk =   0.0063492
        k(   45) = (   0.4000000   0.0000000   0.9349334), wk =   0.0063492
        k(   46) = (   0.4000000   0.2390555   0.0000000), wk =   0.0126984
        k(   47) = (   0.4000000   0.2390555   0.2337334), wk =   0.0126984
        k(   48) = (   0.4000000   0.2390555   0.4674667), wk =   0.0126984
        k(   49) = (   0.4000000   0.2390555   0.7012001), wk =   0.0126984
        k(   50) = (   0.4000000   0.2390555   0.9349334), wk =   0.0126984
        k(   51) = (   0.4000000   0.4781110   0.0000000), wk =   0.0126984
        k(   52) = (   0.4000000   0.4781110   0.2337334), wk =   0.0126984
        k(   53) = (   0.4000000   0.4781110   0.4674667), wk =   0.0126984
        k(   54) = (   0.4000000   0.4781110   0.7012001), wk =   0.0126984
        k(   55) = (   0.4000000   0.4781110   0.9349334), wk =   0.0126984
        k(   56) = (   0.4000000   0.7171664   0.0000000), wk =   0.0126984
        k(   57) = (   0.4000000   0.7171664   0.2337334), wk =   0.0126984
        k(   58) = (   0.4000000   0.7171664   0.4674667), wk =   0.0126984
        k(   59) = (   0.4000000   0.7171664   0.7012001), wk =   0.0126984
        k(   60) = (   0.4000000   0.7171664   0.9349334), wk =   0.0126984
        k(   61) = (  -0.2000000   0.0000000   0.2337334), wk =   0.0063492
        k(   62) = (  -0.2000000   0.0000000   0.4674667), wk =   0.0063492
        k(   63) = (  -0.2000000   0.0000000   0.7012001), wk =   0.0063492
        k(   64) = (  -0.2000000   0.0000000   0.9349334), wk =   0.0063492
        k(   65) = (  -0.2000000  -0.2390555   0.2337334), wk =   0.0126984
        k(   66) = (  -0.2000000  -0.2390555   0.4674667), wk =   0.0126984
        k(   67) = (  -0.2000000  -0.2390555   0.7012001), wk =   0.0126984
        k(   68) = (  -0.2000000  -0.2390555   0.9349334), wk =   0.0126984
        k(   69) = (  -0.2000000  -0.4781110   0.2337334), wk =   0.0126984
        k(   70) = (  -0.2000000  -0.4781110   0.4674667), wk =   0.0126984
        k(   71) = (  -0.2000000  -0.4781110   0.7012001), wk =   0.0126984
        k(   72) = (  -0.2000000  -0.4781110   0.9349334), wk =   0.0126984
        k(   73) = (  -0.2000000  -0.7171664   0.2337334), wk =   0.0126984
        k(   74) = (  -0.2000000  -0.7171664   0.4674667), wk =   0.0126984
        k(   75) = (  -0.2000000  -0.7171664   0.7012001), wk =   0.0126984
        k(   76) = (  -0.2000000  -0.7171664   0.9349334), wk =   0.0126984
        k(   77) = (  -0.4000000   0.0000000   0.2337334), wk =   0.0063492
        k(   78) = (  -0.4000000   0.0000000   0.4674667), wk =   0.0063492
        k(   79) = (  -0.4000000   0.0000000   0.7012001), wk =   0.0063492
        k(   80) = (  -0.4000000   0.0000000   0.9349334), wk =   0.0063492
        k(   81) = (  -0.4000000  -0.2390555   0.2337334), wk =   0.0126984
        k(   82) = (  -0.4000000  -0.2390555   0.4674667), wk =   0.0126984
        k(   83) = (  -0.4000000  -0.2390555   0.7012001), wk =   0.0126984
        k(   84) = (  -0.4000000  -0.2390555   0.9349334), wk =   0.0126984
        k(   85) = (  -0.4000000  -0.4781110   0.2337334), wk =   0.0126984
        k(   86) = (  -0.4000000  -0.4781110   0.4674667), wk =   0.0126984
        k(   87) = (  -0.4000000  -0.4781110   0.7012001), wk =   0.0126984
        k(   88) = (  -0.4000000  -0.4781110   0.9349334), wk =   0.0126984
        k(   89) = (  -0.4000000  -0.7171664   0.2337334), wk =   0.0126984
        k(   90) = (  -0.4000000  -0.7171664   0.4674667), wk =   0.0126984
        k(   91) = (  -0.4000000  -0.7171664   0.7012001), wk =   0.0126984
        k(   92) = (  -0.4000000  -0.7171664   0.9349334), wk =   0.0126984

                       cryst. coord.
        k(    1) = (   0.0000000   0.0000000   0.0000000), wk =   0.0031746
        k(    2) = (   0.0000000   0.0000000   0.1111111), wk =   0.0063492
        k(    3) = (   0.0000000   0.0000000   0.2222222), wk =   0.0063492
        k(    4) = (   0.0000000   0.0000000   0.3333333), wk =   0.0063492
        k(    5) = (   0.0000000   0.0000000   0.4444444), wk =   0.0063492
        k(    6) = (   0.0000000   0.1428571   0.0000000), wk =   0.0063492
        k(    7) = (   0.0000000   0.1428571   0.1111111), wk =   0.0126984
        k(    8) = (   0.0000000   0.1428571   0.2222222), wk =   0.0126984
        k(    9) = (   0.0000000   0.1428571   0.3333333), wk =   0.0126984
        k(   10) = (   0.0000000   0.1428571   0.4444444), wk =   0.0126984
        k(   11) = (   0.0000000   0.2857143   0.0000000), wk =   0.0063492
        k(   12) = (   0.0000000   0.2857143   0.1111111), wk =   0.0126984
        k(   13) = (   0.0000000   0.2857143   0.2222222), wk =   0.0126984
        k(   14) = (   0.0000000   0.2857143   0.3333333), wk =   0.0126984
        k(   15) = (   0.0000000   0.2857143   0.4444444), wk =   0.0126984
        k(   16) = (   0.0000000   0.4285714   0.0000000), wk =   0.0063492
        k(   17) = (   0.0000000   0.4285714   0.1111111), wk =   0.0126984
        k(   18) = (   0.0000000   0.4285714   0.2222222), wk =   0.0126984
        k(   19) = (   0.0000000   0.4285714   0.3333333), wk =   0.0126984
        k(   20) = (   0.0000000   0.4285714   0.4444444), wk =   0.0126984
        k(   21) = (   0.2000000   0.0000000   0.0000000), wk =   0.0063492
        k(   22) = (   0.2000000   0.0000000   0.1111111), wk =   0.0063492
        k(   23) = (   0.2000000   0.0000000   0.2222222), wk =   0.0063492
        k(   24) = (   0.2000000   0.0000000   0.3333333), wk =   0.0063492
        k(   25) = (   0.2000000   0.0000000   0.4444444), wk =   0.0063492
        k(   26) = (   0.2000000   0.1428571   0.0000000), wk =   0.0126984
        k(   27) = (   0.2000000   0.1428571   0.1111111), wk =   0.0126984
        k(   28) = (   0.2000000   0.1428571   0.2222222), wk =   0.0126984
        k(   29) = (   0.2000000   0.1428571   0.3333333), wk =   0.0126984
        k(   30) = (   0.2000000   0.1428571   0.4444444), wk =   0.0126984
        k(   31) = (   0.2000000   0.2857143   0.0000000), wk =   0.0126984
        k(   32) = (   0.2000000   0.2857143   0.1111111), wk =   0.0126984
        k(   33) = (   0.2000000   0.2857143   0.2222222), wk =   0.0126984
        k(   34) = (   0.2000000   0.2857143   0.3333333), wk =   0.0126984
        k(   35) = (   0.2000000   0.2857143   0.4444444), wk =   0.0126984
        k(   36) = (   0.2000000   0.4285714   0.0000000), wk =   0.0126984
        k(   37) = (   0.2000000   0.4285714   0.1111111), wk =   0.0126984
        k(   38) = (   0.2000000   0.4285714   0.2222222), wk =   0.0126984
        k(   39) = (   0.2000000   0.4285714   0.3333333), wk =   0.0126984
        k(   40) = (   0.2000000   0.4285714   0.4444444), wk =   0.0126984
        k(   41) = (   0.4000000   0.0000000   0.0000000), wk =   0.0063492
        k(   42) = (   0.4000000   0.0000000   0.1111111), wk =   0.0063492
        k(   43) = (   0.4000000   0.0000000   0.2222222), wk =   0.0063492
        k(   44) = (   0.4000000   0.0000000   0.3333333), wk =   0.0063492
        k(   45) = (   0.4000000   0.0000000   0.4444444), wk =   0.0063492
        k(   46) = (   0.4000000   0.1428571   0.0000000), wk =   0.0126984
        k(   47) = (   0.4000000   0.1428571   0.1111111), wk =   0.0126984
        k(   48) = (   0.4000000   0.1428571   0.2222222), wk =   0.0126984
        k(   49) = (   0.4000000   0.1428571   0.3333333), wk =   0.0126984
        k(   50) = (   0.4000000   0.1428571   0.4444444), wk =   0.0126984
        k(   51) = (   0.4000000   0.2857143   0.0000000), wk =   0.0126984
        k(   52) = (   0.4000000   0.2857143   0.1111111), wk =   0.0126984
        k(   53) = (   0.4000000   0.2857143   0.2222222), wk =   0.0126984
        k(   54) = (   0.4000000   0.2857143   0.3333333), wk =   0.0126984
        k(   55) = (   0.4000000   0.2857143   0.4444444), wk =   0.0126984
        k(   56) = (   0.4000000   0.4285714   0.0000000), wk =   0.0126984
        k(   57) = (   0.4000000   0.4285714   0.1111111), wk =   0.0126984
        k(   58) = (   0.4000000   0.4285714   0.2222222), wk =   0.0126984
        k(   59) = (   0.4000000   0.4285714   0.3333333), wk =   0.0126984
        k(   60) = (   0.4000000   0.4285714   0.4444444), wk =   0.0126984
        k(   61) = (  -0.2000000   0.0000000   0.1111111), wk =   0.0063492
        k(   62) = (  -0.2000000   0.0000000   0.2222222), wk =   0.0063492
        k(   63) = (  -0.2000000   0.0000000   0.3333333), wk =   0.0063492
        k(   64) = (  -0.2000000   0.0000000   0.4444444), wk =   0.0063492
        k(   65) = (  -0.2000000  -0.1428571   0.1111111), wk =   0.0126984
        k(   66) = (  -0.2000000  -0.1428571   0.2222222), wk =   0.0126984
        k(   67) = (  -0.2000000  -0.1428571   0.3333333), wk =   0.0126984
        k(   68) = (  -0.2000000  -0.1428571   0.4444444), wk =   0.0126984
        k(   69) = (  -0.2000000  -0.2857143   0.1111111), wk =   0.0126984
        k(   70) = (  -0.2000000  -0.2857143   0.2222222), wk =   0.0126984
        k(   71) = (  -0.2000000  -0.2857143   0.3333333), wk =   0.0126984
        k(   72) = (  -0.2000000  -0.2857143   0.4444444), wk =   0.0126984
        k(   73) = (  -0.2000000  -0.4285714   0.1111111), wk =   0.0126984
        k(   74) = (  -0.2000000  -0.4285714   0.2222222), wk =   0.0126984
        k(   75) = (  -0.2000000  -0.4285714   0.3333333), wk =   0.0126984
        k(   76) = (  -0.2000000  -0.4285714   0.4444444), wk =   0.0126984
        k(   77) = (  -0.4000000   0.0000000   0.1111111), wk =   0.0063492
        k(   78) = (  -0.4000000   0.0000000   0.2222222), wk =   0.0063492
        k(   79) = (  -0.4000000   0.0000000   0.3333333), wk =   0.0063492
        k(   80) = (  -0.4000000   0.0000000   0.4444444), wk =   0.0063492
        k(   81) = (  -0.4000000  -0.1428571   0.1111111), wk =   0.0126984
        k(   82) = (  -0.4000000  -0.1428571   0.2222222), wk =   0.0126984
        k(   83) = (  -0.4000000  -0.1428571   0.3333333), wk =   0.0126984
        k(   84) = (  -0.4000000  -0.1428571   0.4444444), wk =   0.0126984
        k(   85) = (  -0.4000000  -0.2857143   0.1111111), wk =   0.0126984
        k(   86) = (  -0.4000000  -0.2857143   0.2222222), wk =   0.0126984
        k(   87) = (  -0.4000000  -0.2857143   0.3333333), wk =   0.0126984
        k(   88) = (  -0.4000000  -0.2857143   0.4444444), wk =   0.0126984
        k(   89) = (  -0.4000000  -0.4285714   0.1111111), wk =   0.0126984
        k(   90) = (  -0.4000000  -0.4285714   0.2222222), wk =   0.0126984
        k(   91) = (  -0.4000000  -0.4285714   0.3333333), wk =   0.0126984
        k(   92) = (  -0.4000000  -0.4285714   0.4444444), wk =   0.0126984

     Dense  grid:  1169635 G-vectors     FFT dimensions: ( 200, 120,  96)

     Smooth grid:   263601 G-vectors     FFT dimensions: ( 125,  80,  60)

     Dynamical RAM for                 wfc:       5.45 MB

     Dynamical RAM for     wfc (w. buffer):    1007.71 MB

     Dynamical RAM for           str. fact:       5.95 MB

     Dynamical RAM for           local pot:       0.00 MB

     Dynamical RAM for          nlocal pot:      12.74 MB

     Dynamical RAM for                qrad:      10.54 MB

     Dynamical RAM for          rho,v,vnew:      17.71 MB

     Dynamical RAM for               rhoin:       5.90 MB

     Dynamical RAM for            rho*nmix:      47.59 MB

     Dynamical RAM for           G-vectors:       5.74 MB

     Dynamical RAM for          h,s,v(r/c):       3.09 MB

     Dynamical RAM for          <psi|beta>:       0.60 MB

     Dynamical RAM for                 psi:      10.89 MB

     Dynamical RAM for                hpsi:      10.89 MB

     Dynamical RAM for                spsi:      10.89 MB

     Dynamical RAM for      wfcinit/wfcrot:      13.27 MB

     Dynamical RAM for           addusdens:     301.92 MB

     Dynamical RAM for          addusforce:     346.66 MB

     Dynamical RAM for         addusstress:     301.17 MB

     Estimated static dynamical RAM per process >       1.10 GB

     Estimated max dynamical RAM per process >       1.44 GB

     Estimated total dynamical RAM >      17.31 GB

     Check: negative core charge=   -0.000003
     Generating pointlists ...
     new r_m :   0.0823 (alat units)  1.5651 (a.u.) for type    1
     new r_m :   0.0915 (alat units)  1.7388 (a.u.) for type    2
     new r_m :   0.0608 (alat units)  1.1557 (a.u.) for type    3
     new r_m :   0.0608 (alat units)  1.1557 (a.u.) for type    4

     Initial potential from superposition of free atoms

     starting charge  215.97252, renormalised to  216.00000
     Starting wfcs are  152 randomized atomic wfcs
     Checking if some PAW data can be deallocated... 
       PAW data deallocated on   10 nodes for type:  1
       PAW data deallocated on    4 nodes for type:  3

     total cpu time spent up to now is     1625.8 secs

     Self-consistent Calculation

     iteration #  1     ecut=   100.00 Ry     beta= 0.40
     Davidson diagonalization with overlap
     ethr =  1.00E-02,  avg # of iterations =  4.1

     total cpu time spent up to now is     6381.0 secs

     total energy              =   -2380.50122208 Ry
     estimated scf accuracy    <       5.73484554 Ry

     total magnetization       =    16.00 Bohr mag/cell
     absolute magnetization    =    16.01 Bohr mag/cell

     iteration #  2     ecut=   100.00 Ry     beta= 0.40
     Davidson diagonalization with overlap
     ethr =  2.66E-03,  avg # of iterations =  2.0

     negative rho (up, down):  0.000E+00 9.779E-05

     total cpu time spent up to now is    10716.6 secs

     total energy              =   -2381.79739407 Ry
     estimated scf accuracy    <       0.44346243 Ry

     total magnetization       =    16.00 Bohr mag/cell
     absolute magnetization    =    16.01 Bohr mag/cell

     iteration #  3     ecut=   100.00 Ry     beta= 0.40
     Davidson diagonalization with overlap
     ethr =  2.05E-04,  avg # of iterations =  8.2

     negative rho (up, down):  0.000E+00 1.160E-04

     total cpu time spent up to now is    15806.6 secs

     total energy              =   -2381.79876350 Ry
     estimated scf accuracy    <       3.20623247 Ry

     total magnetization       =    16.11 Bohr mag/cell
     absolute magnetization    =    16.16 Bohr mag/cell

     iteration #  4     ecut=   100.00 Ry     beta= 0.40
     Davidson diagonalization with overlap
     ethr =  2.05E-04,  avg # of iterations =  2.1

     negative rho (up, down):  0.000E+00 2.738E-04

     total cpu time spent up to now is    19543.7 secs

     total energy              =   -2381.84677579 Ry
     estimated scf accuracy    <       1.48836556 Ry

     total magnetization       =    16.00 Bohr mag/cell
     absolute magnetization    =    16.07 Bohr mag/cell

     iteration #  5     ecut=   100.00 Ry     beta= 0.40
     Davidson diagonalization with overlap
     ethr =  2.05E-04,  avg # of iterations =  1.5

     negative rho (up, down):  0.000E+00 5.062E-04

     total cpu time spent up to now is    23079.6 secs

     total energy              =   -2381.83476670 Ry
     estimated scf accuracy    <       1.82363588 Ry

     total magnetization       =    16.00 Bohr mag/cell
     absolute magnetization    =    16.07 Bohr mag/cell

     iteration #  6     ecut=   100.00 Ry     beta= 0.40
     Davidson diagonalization with overlap
     ethr =  2.05E-04,  avg # of iterations =  2.0

     negative rho (up, down):  0.000E+00 5.251E-04

     total cpu time spent up to now is    26689.9 secs

     total energy              =   -2381.89777741 Ry
     estimated scf accuracy    <       2.06609065 Ry

     total magnetization       =    16.00 Bohr mag/cell
     absolute magnetization    =    16.08 Bohr mag/cell

     iteration #  7     ecut=   100.00 Ry     beta= 0.40
     Davidson diagonalization with overlap
     ethr =  2.05E-04,  avg # of iterations =  1.0

     negative rho (up, down):  0.000E+00 5.303E-04

     total cpu time spent up to now is    30133.1 secs

     total energy              =   -2381.95667898 Ry
     estimated scf accuracy    <       0.16694856 Ry

     total magnetization       =    16.00 Bohr mag/cell
     absolute magnetization    =    16.08 Bohr mag/cell

     iteration #  8     ecut=   100.00 Ry     beta= 0.40
     Davidson diagonalization with overlap
     ethr =  7.73E-05,  avg # of iterations =  1.0

     negative rho (up, down):  0.000E+00 5.302E-04

     total cpu time spent up to now is    33573.2 secs

     total energy              =   -2381.95487802 Ry
     estimated scf accuracy    <       0.51476599 Ry

     total magnetization       =    16.00 Bohr mag/cell
     absolute magnetization    =    16.08 Bohr mag/cell

     iteration #  9     ecut=   100.00 Ry     beta= 0.40
     Davidson diagonalization with overlap
     ethr =  7.73E-05,  avg # of iterations =  1.0

     negative rho (up, down):  0.000E+00 5.297E-04

     total cpu time spent up to now is    37006.7 secs

     total energy              =   -2381.95135062 Ry
     estimated scf accuracy    <       0.20415668 Ry

     total magnetization       =    16.00 Bohr mag/cell
     absolute magnetization    =    16.08 Bohr mag/cell

     iteration # 10     ecut=   100.00 Ry     beta= 0.40
     Davidson diagonalization with overlap
     ethr =  7.73E-05,  avg # of iterations =  1.0

     negative rho (up, down):  0.000E+00 5.296E-04

     total cpu time spent up to now is    40440.9 secs

     total energy              =   -2381.95516084 Ry
     estimated scf accuracy    <       0.03783981 Ry

     total magnetization       =    16.00 Bohr mag/cell
     absolute magnetization    =    16.08 Bohr mag/cell

     iteration # 11     ecut=   100.00 Ry     beta= 0.40
     Davidson diagonalization with overlap
     c_bands:  1 eigenvalues not converged
     ethr =  1.75E-05,  avg # of iterations =  1.3

     negative rho (up, down):  0.000E+00 5.177E-04

     total cpu time spent up to now is    43907.6 secs

     total energy              =   -2381.95687324 Ry
     estimated scf accuracy    <       0.03831400 Ry

     total magnetization       =    16.00 Bohr mag/cell
     absolute magnetization    =    16.08 Bohr mag/cell

     iteration # 12     ecut=   100.00 Ry     beta= 0.40
     Davidson diagonalization with overlap
     ethr =  1.75E-05,  avg # of iterations =  1.1

     negative rho (up, down):  0.000E+00 5.039E-04

     total cpu time spent up to now is    47343.7 secs

     total energy              =   -2381.95929457 Ry
     estimated scf accuracy    <       0.03687278 Ry

     total magnetization       =    16.00 Bohr mag/cell
     absolute magnetization    =    16.09 Bohr mag/cell

     iteration # 13     ecut=   100.00 Ry     beta= 0.40
     Davidson diagonalization with overlap
     ethr =  1.71E-05,  avg # of iterations =  1.0

     negative rho (up, down):  0.000E+00 4.919E-04

     total cpu time spent up to now is    50767.0 secs

     total energy              =   -2381.96239298 Ry
     estimated scf accuracy    <       0.04059415 Ry

     total magnetization       =    16.00 Bohr mag/cell
     absolute magnetization    =    16.09 Bohr mag/cell

     iteration # 14     ecut=   100.00 Ry     beta= 0.40
     Davidson diagonalization with overlap
     ethr =  1.71E-05,  avg # of iterations =  1.0

     negative rho (up, down):  0.000E+00 4.915E-04

     total cpu time spent up to now is    54191.0 secs

     total energy              =   -2381.96470452 Ry
     estimated scf accuracy    <       0.03286182 Ry

     total magnetization       =    16.00 Bohr mag/cell
     absolute magnetization    =    16.09 Bohr mag/cell

     iteration # 15     ecut=   100.00 Ry     beta= 0.40
     Davidson diagonalization with overlap
     ethr =  1.52E-05,  avg # of iterations =  1.0

     negative rho (up, down):  0.000E+00 4.711E-04

     total cpu time spent up to now is    57631.8 secs

     total energy              =   -2381.96592819 Ry
     estimated scf accuracy    <       0.01775563 Ry

     total magnetization       =    16.00 Bohr mag/cell
     absolute magnetization    =    16.10 Bohr mag/cell

     iteration # 16     ecut=   100.00 Ry     beta= 0.40
     Davidson diagonalization with overlap
     c_bands:  1 eigenvalues not converged
     ethr =  8.22E-06,  avg # of iterations =  2.7

     negative rho (up, down):  0.000E+00 4.712E-04

     total cpu time spent up to now is    61302.8 secs

     total energy              =   -2381.96740257 Ry
     estimated scf accuracy    <       0.00171273 Ry

     total magnetization       =    16.00 Bohr mag/cell
     absolute magnetization    =    16.10 Bohr mag/cell

     iteration # 17     ecut=   100.00 Ry     beta= 0.40
     Davidson diagonalization with overlap
     c_bands:  1 eigenvalues not converged
     c_bands:  1 eigenvalues not converged
     c_bands:  1 eigenvalues not converged
     c_bands:  1 eigenvalues not converged
     c_bands:  1 eigenvalues not converged
     c_bands:  1 eigenvalues not converged
     c_bands:  1 eigenvalues not converged
     c_bands:  1 eigenvalues not converged
     c_bands:  1 eigenvalues not converged
     c_bands:  2 eigenvalues not converged
     c_bands:  1 eigenvalues not converged
     c_bands:  1 eigenvalues not converged
     c_bands:  1 eigenvalues not converged
     c_bands:  1 eigenvalues not converged
     c_bands:  1 eigenvalues not converged
     ethr =  7.93E-07,  avg # of iterations = 11.8

     negative rho (up, down):  0.000E+00 4.704E-04

     total cpu time spent up to now is    65688.2 secs

     total energy              =   -2381.96737702 Ry
     estimated scf accuracy    <       0.00180903 Ry

     total magnetization       =    16.00 Bohr mag/cell
     absolute magnetization    =    16.10 Bohr mag/cell

     iteration # 18     ecut=   100.00 Ry     beta= 0.40
     Davidson diagonalization with overlap
     ethr =  7.93E-07,  avg # of iterations =  2.0

     negative rho (up, down):  0.000E+00 4.876E-04

     total cpu time spent up to now is    69265.5 secs

     total energy              =   -2381.96762283 Ry
     estimated scf accuracy    <       0.00309087 Ry

     total magnetization       =    16.00 Bohr mag/cell
     absolute magnetization    =    16.10 Bohr mag/cell

     iteration # 19     ecut=   100.00 Ry     beta= 0.40
     Davidson diagonalization with overlap
     ethr =  7.93E-07,  avg # of iterations =  2.0

     negative rho (up, down):  0.000E+00 4.928E-04

     total cpu time spent up to now is    72947.4 secs

     total energy              =   -2381.96786739 Ry
     estimated scf accuracy    <       0.00954365 Ry

     total magnetization       =    16.00 Bohr mag/cell
     absolute magnetization    =    16.10 Bohr mag/cell

     iteration # 20     ecut=   100.00 Ry     beta= 0.40
     Davidson diagonalization with overlap
     ethr =  7.93E-07,  avg # of iterations =  1.2

     negative rho (up, down):  0.000E+00 4.729E-04

     total cpu time spent up to now is    76412.3 secs

     total energy              =   -2381.96777974 Ry
     estimated scf accuracy    <       0.00440374 Ry

     total magnetization       =    16.00 Bohr mag/cell
     absolute magnetization    =    16.10 Bohr mag/cell

     iteration # 21     ecut=   100.00 Ry     beta= 0.40
     Davidson diagonalization with overlap
     ethr =  7.93E-07,  avg # of iterations =  1.1

     negative rho (up, down):  0.000E+00 4.623E-04

     total cpu time spent up to now is    79827.4 secs

     total energy              =   -2381.96789477 Ry
     estimated scf accuracy    <       0.00019780 Ry

     total magnetization       =    16.00 Bohr mag/cell
     absolute magnetization    =    16.10 Bohr mag/cell

     iteration # 22     ecut=   100.00 Ry     beta= 0.40
     Davidson diagonalization with overlap
     ethr =  9.16E-08,  avg # of iterations =  1.9

     negative rho (up, down):  0.000E+00 4.608E-04

     total cpu time spent up to now is    83356.3 secs

     total energy              =   -2381.96792967 Ry
     estimated scf accuracy    <       0.00023147 Ry

     total magnetization       =    16.00 Bohr mag/cell
     absolute magnetization    =    16.10 Bohr mag/cell

     iteration # 23     ecut=   100.00 Ry     beta= 0.40
     Davidson diagonalization with overlap
     ethr =  9.16E-08,  avg # of iterations =  1.0

     negative rho (up, down):  0.000E+00 4.600E-04

     total cpu time spent up to now is    86732.1 secs

     total energy              =   -2381.96797588 Ry
     estimated scf accuracy    <       0.00016738 Ry

     total magnetization       =    16.00 Bohr mag/cell
     absolute magnetization    =    16.10 Bohr mag/cell

     iteration # 24     ecut=   100.00 Ry     beta= 0.40
     Davidson diagonalization with overlap
     ethr =  7.75E-08,  avg # of iterations =  2.0

     negative rho (up, down):  0.000E+00 4.620E-04

     total cpu time spent up to now is    90469.3 secs

     total energy              =   -2381.96802534 Ry
     estimated scf accuracy    <       0.00005617 Ry

     total magnetization       =    16.00 Bohr mag/cell
     absolute magnetization    =    16.10 Bohr mag/cell

     iteration # 25     ecut=   100.00 Ry     beta= 0.40
     Davidson diagonalization with overlap
     ethr =  2.60E-08,  avg # of iterations =  2.2

     negative rho (up, down):  0.000E+00 4.597E-04

     total cpu time spent up to now is    94585.1 secs

     total energy              =   -2381.96809976 Ry
     estimated scf accuracy    <       0.00003383 Ry

     total magnetization       =    16.00 Bohr mag/cell
     absolute magnetization    =    16.09 Bohr mag/cell

     iteration # 26     ecut=   100.00 Ry     beta= 0.40
     Davidson diagonalization with overlap
     ethr =  1.57E-08,  avg # of iterations =  2.0

     negative rho (up, down):  0.000E+00 4.512E-04

     total cpu time spent up to now is    98334.7 secs

     total energy              =   -2381.96741524 Ry
     estimated scf accuracy    <       0.00002946 Ry

     total magnetization       =    16.00 Bohr mag/cell
     absolute magnetization    =    16.09 Bohr mag/cell

     iteration # 27     ecut=   100.00 Ry     beta= 0.40
     Davidson diagonalization with overlap
     ethr =  1.36E-08,  avg # of iterations =  4.7

     negative rho (up, down):  0.000E+00 4.501E-04

     total cpu time spent up to now is   103467.8 secs

     total energy              =   -2381.96820550 Ry
     estimated scf accuracy    <       0.00002787 Ry

     total magnetization       =    16.00 Bohr mag/cell
     absolute magnetization    =    16.09 Bohr mag/cell

     iteration # 28     ecut=   100.00 Ry     beta= 0.40
     Davidson diagonalization with overlap
     ethr =  1.29E-08,  avg # of iterations =  2.4

     negative rho (up, down):  0.000E+00 4.492E-04

     total cpu time spent up to now is   107775.5 secs

     total energy              =   -2381.96823651 Ry
     estimated scf accuracy    <       0.00003346 Ry

     total magnetization       =    16.00 Bohr mag/cell
     absolute magnetization    =    16.09 Bohr mag/cell

     iteration # 29     ecut=   100.00 Ry     beta= 0.40
     Davidson diagonalization with overlap
     ethr =  1.29E-08,  avg # of iterations =  2.6

     negative rho (up, down):  0.000E+00 4.478E-04

     total cpu time spent up to now is   112056.2 secs

     total energy              =   -2381.96826808 Ry
     estimated scf accuracy    <       0.00000615 Ry

     total magnetization       =    16.00 Bohr mag/cell
     absolute magnetization    =    16.09 Bohr mag/cell

     iteration # 30     ecut=   100.00 Ry     beta= 0.40
     Davidson diagonalization with overlap
     ethr =  2.85E-09,  avg # of iterations =  4.0

     negative rho (up, down):  0.000E+00 4.478E-04

     total cpu time spent up to now is   116901.3 secs

     total energy              =   -2381.96832267 Ry
     estimated scf accuracy    <       0.00000174 Ry

     total magnetization       =    16.00 Bohr mag/cell
     absolute magnetization    =    16.08 Bohr mag/cell

     iteration # 31     ecut=   100.00 Ry     beta= 0.40
     Davidson diagonalization with overlap
     ethr =  8.07E-10,  avg # of iterations =  2.0

     negative rho (up, down):  0.000E+00 4.475E-04

     total cpu time spent up to now is   120714.5 secs

     total energy              =   -2381.96832701 Ry
     estimated scf accuracy    <       0.00000294 Ry

     total magnetization       =    16.00 Bohr mag/cell
     absolute magnetization    =    16.08 Bohr mag/cell

     iteration # 32     ecut=   100.00 Ry     beta= 0.40
     Davidson diagonalization with overlap
     ethr =  8.07E-10,  avg # of iterations =  2.0

     negative rho (up, down):  0.000E+00 4.468E-04

     total cpu time spent up to now is   124517.7 secs

     total energy              =   -2381.96832505 Ry
     estimated scf accuracy    <       0.00000069 Ry

     total magnetization       =    16.00 Bohr mag/cell
     absolute magnetization    =    16.08 Bohr mag/cell

     iteration # 33     ecut=   100.00 Ry     beta= 0.40
     Davidson diagonalization with overlap
     ethr =  3.19E-10,  avg # of iterations =  4.0

     negative rho (up, down):  0.000E+00 4.470E-04

     total cpu time spent up to now is   129203.8 secs

     total energy              =   -2381.96833049 Ry
     estimated scf accuracy    <       0.00000087 Ry

     total magnetization       =    16.00 Bohr mag/cell
     absolute magnetization    =    16.08 Bohr mag/cell

     iteration # 34     ecut=   100.00 Ry     beta= 0.40
     Davidson diagonalization with overlap
     ethr =  3.19E-10,  avg # of iterations =  2.6

     negative rho (up, down):  0.000E+00 4.469E-04

     total cpu time spent up to now is   133558.5 secs

     total energy              =   -2381.96833211 Ry
     estimated scf accuracy    <       0.00000062 Ry

     total magnetization       =    16.00 Bohr mag/cell
     absolute magnetization    =    16.08 Bohr mag/cell

     iteration # 35     ecut=   100.00 Ry     beta= 0.40
     Davidson diagonalization with overlap
     ethr =  2.88E-10,  avg # of iterations =  2.0

     negative rho (up, down):  0.000E+00 4.468E-04

     total cpu time spent up to now is   137405.9 secs

     total energy              =   -2381.96833197 Ry
     estimated scf accuracy    <       0.00000021 Ry

     total magnetization       =    16.00 Bohr mag/cell
     absolute magnetization    =    16.08 Bohr mag/cell

     iteration # 36     ecut=   100.00 Ry     beta= 0.40
     Davidson diagonalization with overlap
     ethr =  9.56E-11,  avg # of iterations =  3.7

     negative rho (up, down):  0.000E+00 4.468E-04

     total cpu time spent up to now is   142006.6 secs

     total energy              =   -2381.96833305 Ry
     estimated scf accuracy    <       0.00000004 Ry

     total magnetization       =    16.00 Bohr mag/cell
     absolute magnetization    =    16.08 Bohr mag/cell

     iteration # 37     ecut=   100.00 Ry     beta= 0.40
     Davidson diagonalization with overlap
     ethr =  2.02E-11,  avg # of iterations =  4.0

     negative rho (up, down):  0.000E+00 4.466E-04

     total cpu time spent up to now is   146673.1 secs

     total energy              =   -2381.96833311 Ry
     estimated scf accuracy    <       0.00000004 Ry

     total magnetization       =    16.00 Bohr mag/cell
     absolute magnetization    =    16.08 Bohr mag/cell

     iteration # 38     ecut=   100.00 Ry     beta= 0.40
     Davidson diagonalization with overlap
     ethr =  1.83E-11,  avg # of iterations =  3.1

     negative rho (up, down):  0.000E+00 4.466E-04

     total cpu time spent up to now is   151113.2 secs

     total energy              =   -2381.96833334 Ry
     estimated scf accuracy    <       0.00000003 Ry

     total magnetization       =    16.00 Bohr mag/cell
     absolute magnetization    =    16.08 Bohr mag/cell

     iteration # 39     ecut=   100.00 Ry     beta= 0.40
     Davidson diagonalization with overlap
     ethr =  1.20E-11,  avg # of iterations =  2.0

     negative rho (up, down):  0.000E+00 4.466E-04

     total cpu time spent up to now is   154785.0 secs

     total energy              =   -2381.96833337 Ry
     estimated scf accuracy    <          4.6E-09 Ry

     total magnetization       =    16.00 Bohr mag/cell
     absolute magnetization    =    16.08 Bohr mag/cell

     iteration # 40     ecut=   100.00 Ry     beta= 0.40
     Davidson diagonalization with overlap
     ethr =  2.14E-12,  avg # of iterations =  2.3

     negative rho (up, down):  0.000E+00 4.466E-04

     total cpu time spent up to now is   158719.7 secs

     total energy              =   -2381.96833339 Ry
     estimated scf accuracy    <          7.6E-10 Ry

     total magnetization       =    16.00 Bohr mag/cell
     absolute magnetization    =    16.08 Bohr mag/cell

     iteration # 41     ecut=   100.00 Ry     beta= 0.40
     Davidson diagonalization with overlap
     ethr =  3.53E-13,  avg # of iterations =  4.1

     negative rho (up, down):  0.000E+00 4.466E-04

     total cpu time spent up to now is   163335.8 secs

     total energy              =   -2381.96833339 Ry
     estimated scf accuracy    <          3.5E-10 Ry

     total magnetization       =    16.00 Bohr mag/cell
     absolute magnetization    =    16.08 Bohr mag/cell

     iteration # 42     ecut=   100.00 Ry     beta= 0.40
     Davidson diagonalization with overlap
     c_bands:  1 eigenvalues not converged
     ethr =  1.63E-13,  avg # of iterations =  3.9

     negative rho (up, down):  0.000E+00 4.466E-04

     total cpu time spent up to now is   167992.4 secs

     total energy              =   -2381.96833339 Ry
     estimated scf accuracy    <          7.8E-10 Ry

     total magnetization       =    16.00 Bohr mag/cell
     absolute magnetization    =    16.08 Bohr mag/cell

     iteration # 43     ecut=   100.00 Ry     beta= 0.40
     Davidson diagonalization with overlap
     ethr =  1.63E-13,  avg # of iterations =  2.0

     negative rho (up, down):  0.000E+00 4.466E-04

     Magnetic moment per site:
     atom:    1    charge:    7.9418    magn:    0.0001    constr:    0.0000
     atom:    2    charge:    7.9418    magn:    0.0001    constr:    0.0000
     atom:    3    charge:    7.9418    magn:    0.0001    constr:    0.0000
     atom:    4    charge:    7.9418    magn:    0.0001    constr:    0.0000
     atom:    5    charge:   13.2396    magn:    3.2955    constr:    0.0000
     atom:    6    charge:   13.2396    magn:    3.2955    constr:    0.0000
     atom:    7    charge:   13.2396    magn:    3.2955    constr:    0.0000
     atom:    8    charge:   13.2396    magn:    3.2955    constr:    0.0000
     atom:    9    charge:    0.8173    magn:    0.0068    constr:    0.0000
     atom:   10    charge:    0.8173    magn:    0.0068    constr:    0.0000
     atom:   11    charge:    0.8173    magn:    0.0068    constr:    0.0000
     atom:   12    charge:    0.8173    magn:    0.0068    constr:    0.0000
     atom:   13    charge:    4.1346    magn:    0.0336    constr:    0.0000
     atom:   14    charge:    4.1346    magn:    0.0336    constr:    0.0000
     atom:   15    charge:    4.1346    magn:    0.0336    constr:    0.0000
     atom:   16    charge:    4.1346    magn:    0.0336    constr:    0.0000
     atom:   17    charge:    4.1385    magn:    0.0461    constr:    0.0000
     atom:   18    charge:    4.1385    magn:    0.0461    constr:    0.0000
     atom:   19    charge:    4.1385    magn:    0.0461    constr:    0.0000
     atom:   20    charge:    4.1386    magn:    0.0461    constr:    0.0000
     atom:   21    charge:    4.1302    magn:    0.0786    constr:    0.0000
     atom:   22    charge:    4.1302    magn:    0.0786    constr:    0.0000
     atom:   23    charge:    4.1302    magn:    0.0786    constr:    0.0000
     atom:   24    charge:    4.1302    magn:    0.0786    constr:    0.0000
     atom:   25    charge:    4.1302    magn:    0.0786    constr:    0.0000
     atom:   26    charge:    4.1302    magn:    0.0786    constr:    0.0000
     atom:   27    charge:    4.1302    magn:    0.0786    constr:    0.0000
     atom:   28    charge:    4.1302    magn:    0.0786    constr:    0.0000

     total cpu time spent up to now is   171725.2 secs

     End of self-consistent calculation

 ------ SPIN UP ------------


          k = 0.0000 0.0000 0.0000 ( 32965 PWs)   bands (ev):

   -79.4518 -79.4514 -79.4501 -79.4496 -46.2785 -46.2770 -46.2768 -46.2753
   -45.5239 -45.5235 -45.5223 -45.5216 -44.7486 -44.7475 -44.7469 -44.7458
   -41.5911 -41.5910 -41.5783 -41.5783 -14.3881 -14.3108 -14.2378 -14.0306
   -13.7248 -13.7218 -13.6876 -13.6693 -13.6581 -13.6522 -13.5598 -13.5593
   -13.5364 -13.5357 -13.2875 -13.2246 -11.1798 -11.1629 -11.1139 -11.0998
   -11.0985 -11.0778 -10.9783 -10.9032 -10.9007 -10.8911 -10.8864 -10.8061
    -1.0011  -0.4887  -0.2654  -0.2458   0.3082   0.8158   0.8478   1.0132
     1.1379   1.2811   1.6586   1.6706   1.6827   1.7253   1.7410   2.1346
     2.8075   3.0176   3.3294   3.4166   3.5492   3.6679   3.7139   3.8252
     3.9104   3.9484   3.9774   4.3018   4.4016   4.4248   4.4700   4.6035
     4.6663   4.7374   4.7506   4.7765   4.9229   5.0197   5.2695   5.3011
     5.3416   5.4283   5.4945   5.8518   5.9448   6.1280   6.3515   6.5924
     6.9537   6.9757   7.0099   7.2724   7.3377   7.3726   7.4122   7.4663
     7.7637   7.9310   8.0802   8.1677   8.1881   8.2582   8.2748   8.7056
     8.7406   8.7686   8.9095   8.9619  12.4051  14.4349  14.5417  14.9218
    15.4964  15.6399  16.2448  17.0243  17.2510  17.3177  17.3969  17.4153
    17.5168  17.5542

     occupation numbers 
     1.0000   1.0000   1.0000   1.0000   1.0000   1.0000   1.0000   1.0000
     1.0000   1.0000   1.0000   1.0000   1.0000   1.0000   1.0000   1.0000
     1.0000   1.0000   1.0000   1.0000   1.0000   1.0000   1.0000   1.0000
     1.0000   1.0000   1.0000   1.0000   1.0000   1.0000   1.0000   1.0000
     1.0000   1.0000   1.0000   1.0000   1.0000   1.0000   1.0000   1.0000
     1.0000   1.0000   1.0000   1.0000   1.0000   1.0000   1.0000   1.0000
     1.0000   1.0000   1.0000   1.0000   1.0000   1.0000   1.0000   1.0000
     1.0000   1.0000   1.0000   1.0000   1.0000   1.0000   1.0000   1.0000
     1.0000   1.0000   1.0000   1.0000   1.0000   1.0000   1.0000   1.0000
     1.0000   1.0000   1.0000   1.0000   1.0000   1.0000   1.0000   1.0000
     1.0000   1.0000   1.0000   1.0000   1.0000   1.0000   1.0000   1.0000
     1.0000   1.0000   1.0000   1.0000   1.0000   1.0000   1.0000   1.0000
     1.0000   1.0000   1.0000   1.0000   1.0000   1.0000   1.0000   1.0000
     1.0000   1.0000   1.0000   1.0000   1.0000   1.0000   1.0000   1.0000
     1.0000   1.0000   1.0000   1.0000   0.0000   0.0000   0.0000   0.0000
     0.0000   0.0000   0.0000   0.0000   0.0000   0.0000   0.0000   0.0000
     0.0000   0.0000

          k = 0.0000 0.0000 0.2337 ( 32923 PWs)   bands (ev):

   -79.4518 -79.4514 -79.4501 -79.4496 -46.2785 -46.2770 -46.2768 -46.2754
   -45.5239 -45.5235 -45.5223 -45.5216 -44.7486 -44.7475 -44.7469 -44.7458
   -41.5910 -41.5910 -41.5783 -41.5783 -14.3871 -14.3068 -14.2314 -14.0593
   -13.7184 -13.6993 -13.6585 -13.6583 -13.6528 -13.6391 -13.5599 -13.5595
   -13.5364 -13.5358 -13.3072 -13.2500 -11.1733 -11.1708 -11.1379 -11.1295
   -11.0832 -11.0739 -10.9810 -10.9230 -10.8967 -10.8943 -10.8762 -10.8148
    -0.9778  -0.4941  -0.2899  -0.2132   0.3869   0.8311   0.9223   1.0796
     1.1372   1.3027   1.6642   1.6707   1.6906   1.7057   1.7108   2.1122
     2.8088   3.0078   3.3250   3.3643   3.5677   3.6006   3.7192   3.7503
     3.8284   3.9105   4.0298   4.2563   4.3509   4.3864   4.4957   4.5658
     4.6207   4.6607   4.8623   4.9018   4.9952   5.0268   5.1976   5.2971
     5.3200   5.4695   5.5548   5.8706   5.9450   6.1604   6.3441   6.5709
     6.9450   6.9637   7.0159   7.2704   7.3222   7.3553   7.3839   7.4220
     7.7961   7.9532   8.1179   8.1720   8.2344   8.2727   8.2736   8.6803
     8.7196   8.7355   8.9198   8.9543  12.5513  14.4493  14.6356  14.9073
    15.5366  15.6092  16.3838  16.8183  17.0126  17.0261  17.1424  17.2301
    17.6606  17.7918

     occupation numbers 
     1.0000   1.0000   1.0000   1.0000   1.0000   1.0000   1.0000   1.0000
     1.0000   1.0000   1.0000   1.0000   1.0000   1.0000   1.0000   1.0000
     1.0000   1.0000   1.0000   1.0000   1.0000   1.0000   1.0000   1.0000
     1.0000   1.0000   1.0000   1.0000   1.0000   1.0000   1.0000   1.0000
     1.0000   1.0000   1.0000   1.0000   1.0000   1.0000   1.0000   1.0000
     1.0000   1.0000   1.0000   1.0000   1.0000   1.0000   1.0000   1.0000
     1.0000   1.0000   1.0000   1.0000   1.0000   1.0000   1.0000   1.0000
     1.0000   1.0000   1.0000   1.0000   1.0000   1.0000   1.0000   1.0000
     1.0000   1.0000   1.0000   1.0000   1.0000   1.0000   1.0000   1.0000
     1.0000   1.0000   1.0000   1.0000   1.0000   1.0000   1.0000   1.0000
     1.0000   1.0000   1.0000   1.0000   1.0000   1.0000   1.0000   1.0000
     1.0000   1.0000   1.0000   1.0000   1.0000   1.0000   1.0000   1.0000
     1.0000   1.0000   1.0000   1.0000   1.0000   1.0000   1.0000   1.0000
     1.0000   1.0000   1.0000   1.0000   1.0000   1.0000   1.0000   1.0000
     1.0000   1.0000   1.0000   1.0000   0.0000   0.0000   0.0000   0.0000
     0.0000   0.0000   0.0000   0.0000   0.0000   0.0000   0.0000   0.0000
     0.0000   0.0000

          k = 0.0000 0.0000 0.4675 ( 32947 PWs)   bands (ev):

   -79.4518 -79.4514 -79.4501 -79.4496 -46.2783 -46.2771 -46.2767 -46.2755
   -45.5238 -45.5235 -45.5223 -45.5216 -44.7485 -44.7476 -44.7468 -44.7459
   -41.5910 -41.5910 -41.5783 -41.5783 -14.3993 -14.3194 -14.1818 -14.0684
   -13.7160 -13.6918 -13.6588 -13.6544 -13.5922 -13.5709 -13.5603 -13.5600
   -13.5364 -13.5359 -13.3483 -13.2995 -11.2141 -11.1908 -11.1551 -11.1451
   -11.0779 -11.0626 -10.9909 -10.9892 -10.9172 -10.9053 -10.8325 -10.8183
    -0.9092  -0.4964  -0.3325  -0.2003   0.6298   0.8972   1.0945   1.1426
     1.2538   1.3577   1.6088   1.6517   1.6559   1.7281   1.7559   2.0434
     2.8087   2.9819   3.2413   3.3123   3.4633   3.5997   3.6372   3.6500
     3.7066   3.8143   4.0902   4.2036   4.2620   4.3020   4.3183   4.4784
     4.5288   4.5961   4.9897   4.9932   5.1109   5.1567   5.2231   5.3122
     5.3481   5.5392   5.6021   5.9378   5.9379   6.2533   6.3135   6.5328
     6.9322   6.9336   7.0328   7.2396   7.2454   7.2973   7.3268   7.4024
     7.8873   8.0220   8.1841   8.1851   8.2780   8.3051   8.3368   8.6065
     8.6571   8.6724   8.9285   8.9353  12.9369  14.5001  14.7752  14.9832
    15.6124  15.6173  16.2097  16.5678  16.7728  16.8785  16.8964  16.9726
    17.4958  17.6679

     occupation numbers 
     1.0000   1.0000   1.0000   1.0000   1.0000   1.0000   1.0000   1.0000
     1.0000   1.0000   1.0000   1.0000   1.0000   1.0000   1.0000   1.0000
     1.0000   1.0000   1.0000   1.0000   1.0000   1.0000   1.0000   1.0000
     1.0000   1.0000   1.0000   1.0000   1.0000   1.0000   1.0000   1.0000
     1.0000   1.0000   1.0000   1.0000   1.0000   1.0000   1.0000   1.0000
     1.0000   1.0000   1.0000   1.0000   1.0000   1.0000   1.0000   1.0000
     1.0000   1.0000   1.0000   1.0000   1.0000   1.0000   1.0000   1.0000
     1.0000   1.0000   1.0000   1.0000   1.0000   1.0000   1.0000   1.0000
     1.0000   1.0000   1.0000   1.0000   1.0000   1.0000   1.0000   1.0000
     1.0000   1.0000   1.0000   1.0000   1.0000   1.0000   1.0000   1.0000
     1.0000   1.0000   1.0000   1.0000   1.0000   1.0000   1.0000   1.0000
     1.0000   1.0000   1.0000   1.0000   1.0000   1.0000   1.0000   1.0000
     1.0000   1.0000   1.0000   1.0000   1.0000   1.0000   1.0000   1.0000
     1.0000   1.0000   1.0000   1.0000   1.0000   1.0000   1.0000   1.0000
     1.0000   1.0000   1.0000   1.0000   0.0000   0.0000   0.0000   0.0000
     0.0000   0.0000   0.0000   0.0000   0.0000   0.0000   0.0000   0.0000
     0.0000   0.0000

          k = 0.0000 0.0000 0.7012 ( 32929 PWs)   bands (ev):

   -79.4518 -79.4514 -79.4501 -79.4496 -46.2782 -46.2773 -46.2765 -46.2757
   -45.5238 -45.5235 -45.5223 -45.5216 -44.7484 -44.7477 -44.7467 -44.7460
   -41.5910 -41.5910 -41.5783 -41.5782 -14.4194 -14.3635 -14.0751 -14.0006
   -13.7241 -13.6980 -13.6593 -13.6565 -13.5998 -13.5889 -13.5607 -13.5606
   -13.5364 -13.5360 -13.3384 -13.2919 -11.2717 -11.2407 -11.1745 -11.1209
   -11.1070 -11.0451 -11.0195 -11.0038 -10.9515 -10.9372 -10.8014 -10.7976
    -0.8000  -0.4752  -0.4072  -0.2542   0.9844   1.0401   1.1713   1.2287
     1.4200   1.4639   1.4770   1.5762   1.6686   1.8779   1.9175   1.9349
     2.7873   2.9641   3.0856   3.2722   3.3157   3.4170   3.5738   3.6232
     3.6710   3.7287   3.7668   4.1349   4.1888   4.2152   4.3196   4.3815
     4.4954   4.5709   4.8739   4.8790   5.2628   5.3666   5.3920   5.4143
     5.4522   5.6028   5.6717   5.9041   5.9622   6.2344   6.3885   6.5470
     6.8971   6.9429   7.0604   7.1296   7.1559   7.2307   7.3102   7.4035
     8.0218   8.1346   8.2037   8.2158   8.3059   8.3313   8.4432   8.4905
     8.5557   8.6195   8.9160   8.9237  13.4496  14.6176  14.7053  15.2000
    15.5684  15.6543  15.9851  16.3717  16.5570  16.7329  16.8495  16.8975
    17.2546  17.6285

     occupation numbers 
     1.0000   1.0000   1.0000   1.0000   1.0000   1.0000   1.0000   1.0000
     1.0000   1.0000   1.0000   1.0000   1.0000   1.0000   1.0000   1.0000
     1.0000   1.0000   1.0000   1.0000   1.0000   1.0000   1.0000   1.0000
     1.0000   1.0000   1.0000   1.0000   1.0000   1.0000   1.0000   1.0000
     1.0000   1.0000   1.0000   1.0000   1.0000   1.0000   1.0000   1.0000
     1.0000   1.0000   1.0000   1.0000   1.0000   1.0000   1.0000   1.0000
     1.0000   1.0000   1.0000   1.0000   1.0000   1.0000   1.0000   1.0000
     1.0000   1.0000   1.0000   1.0000   1.0000   1.0000   1.0000   1.0000
     1.0000   1.0000   1.0000   1.0000   1.0000   1.0000   1.0000   1.0000
     1.0000   1.0000   1.0000   1.0000   1.0000   1.0000   1.0000   1.0000
     1.0000   1.0000   1.0000   1.0000   1.0000   1.0000   1.0000   1.0000
     1.0000   1.0000   1.0000   1.0000   1.0000   1.0000   1.0000   1.0000
     1.0000   1.0000   1.0000   1.0000   1.0000   1.0000   1.0000   1.0000
     1.0000   1.0000   1.0000   1.0000   1.0000   1.0000   1.0000   1.0000
     1.0000   1.0000   1.0000   1.0000   0.0000   0.0000   0.0000   0.0000
     0.0000   0.0000   0.0000   0.0000   0.0000   0.0000   0.0000   0.0000
     0.0000   0.0000

          k = 0.0000 0.0000 0.9349 ( 32952 PWs)   bands (ev):

   -79.4518 -79.4514 -79.4501 -79.4496 -46.2780 -46.2775 -46.2763 -46.2759
   -45.5238 -45.5235 -45.5223 -45.5216 -44.7484 -44.7478 -44.7467 -44.7461
   -41.5910 -41.5910 -41.5783 -41.5782 -14.4244 -14.4050 -13.9338 -13.8924
   -13.7716 -13.7711 -13.6593 -13.6583 -13.6540 -13.6418 -13.5610 -13.5609
   -13.5362 -13.5361 -13.2809 -13.2612 -11.3030 -11.2856 -11.1852 -11.1730
   -11.0639 -11.0272 -11.0218 -11.0006 -10.9902 -10.9714 -10.7849 -10.7817
    -0.6624  -0.5210  -0.4235  -0.3443   1.1597   1.2377   1.2455   1.3324
     1.3441   1.4582   1.5202   1.6152   1.7209   1.8158   2.0862   2.1132
     2.7572   2.8748   2.9954   3.1027   3.2506   3.3163   3.3694   3.4690
     3.6482   3.6880   3.7984   3.9450   4.1945   4.2004   4.3133   4.3136
     4.5618   4.6410   4.7214   4.7466   5.3535   5.4057   5.4405   5.4861
     5.6578   5.7082   5.8262   5.8292   5.9061   6.0919   6.5177   6.5831
     6.9145   6.9813   7.0282   7.0440   7.0992   7.1540   7.3436   7.3806
     8.1807   8.2178   8.2212   8.2760   8.3318   8.3387   8.3434   8.4235
     8.5263   8.5797   8.9078   8.9129  13.9830  14.4434  14.8117  15.0316
    15.6786  15.6834  16.0152  16.1542  16.5375  16.7207  16.7663  16.7982
    17.2326  17.4552

     occupation numbers 
     1.0000   1.0000   1.0000   1.0000   1.0000   1.0000   1.0000   1.0000
     1.0000   1.0000   1.0000   1.0000   1.0000   1.0000   1.0000   1.0000
     1.0000   1.0000   1.0000   1.0000   1.0000   1.0000   1.0000   1.0000
     1.0000   1.0000   1.0000   1.0000   1.0000   1.0000   1.0000   1.0000
     1.0000   1.0000   1.0000   1.0000   1.0000   1.0000   1.0000   1.0000
     1.0000   1.0000   1.0000   1.0000   1.0000   1.0000   1.0000   1.0000
     1.0000   1.0000   1.0000   1.0000   1.0000   1.0000   1.0000   1.0000
     1.0000   1.0000   1.0000   1.0000   1.0000   1.0000   1.0000   1.0000
     1.0000   1.0000   1.0000   1.0000   1.0000   1.0000   1.0000   1.0000
     1.0000   1.0000   1.0000   1.0000   1.0000   1.0000   1.0000   1.0000
     1.0000   1.0000   1.0000   1.0000   1.0000   1.0000   1.0000   1.0000
     1.0000   1.0000   1.0000   1.0000   1.0000   1.0000   1.0000   1.0000
     1.0000   1.0000   1.0000   1.0000   1.0000   1.0000   1.0000   1.0000
     1.0000   1.0000   1.0000   1.0000   1.0000   1.0000   1.0000   1.0000
     1.0000   1.0000   1.0000   1.0000   0.0000   0.0000   0.0000   0.0000
     0.0000   0.0000   0.0000   0.0000   0.0000   0.0000   0.0000   0.0000
     0.0000   0.0000

          k = 0.0000 0.2391 0.0000 ( 32916 PWs)   bands (ev):

   -79.4518 -79.4514 -79.4501 -79.4496 -46.2784 -46.2770 -46.2768 -46.2754
   -45.5238 -45.5235 -45.5223 -45.5216 -44.7486 -44.7475 -44.7468 -44.7458
   -41.5904 -41.5904 -41.5789 -41.5789 -14.3744 -14.3050 -14.2380 -14.0585
   -13.7183 -13.7153 -13.6807 -13.6641 -13.6447 -13.6424 -13.5630 -13.5605
   -13.5387 -13.5350 -13.2960 -13.2467 -11.1789 -11.1552 -11.1332 -11.1121
   -11.1016 -11.0981 -10.9901 -10.9056 -10.8966 -10.8716 -10.8599 -10.8098
    -0.9608  -0.4585  -0.2984  -0.2328   0.3568   0.8308   0.8666   0.9895
     1.1987   1.2852   1.5710   1.6419   1.7291   1.7763   1.7857   2.1046
     2.8264   3.0192   3.2893   3.3762   3.4341   3.6342   3.7201   3.8276
     3.8792   3.8916   4.1100   4.2736   4.2919   4.3348   4.5473   4.6719
     4.6793   4.6897   4.7710   4.8322   5.0054   5.0722   5.1398   5.3179
     5.3762   5.4398   5.4768   5.8216   5.9466   6.0736   6.3066   6.5753
     6.8942   6.9371   7.0721   7.1984   7.2486   7.3882   7.4725   7.6074
     7.7234   7.8923   8.1081   8.1599   8.2249   8.2402   8.3508   8.5406
     8.5493   8.9214   9.0001   9.0016  12.5662  14.5250  14.6464  14.9047
    15.5822  15.7391  16.2116  17.0128  17.1206  17.2374  17.3306  17.4132
    17.5708  17.6006

     occupation numbers 
     1.0000   1.0000   1.0000   1.0000   1.0000   1.0000   1.0000   1.0000
     1.0000   1.0000   1.0000   1.0000   1.0000   1.0000   1.0000   1.0000
     1.0000   1.0000   1.0000   1.0000   1.0000   1.0000   1.0000   1.0000
     1.0000   1.0000   1.0000   1.0000   1.0000   1.0000   1.0000   1.0000
     1.0000   1.0000   1.0000   1.0000   1.0000   1.0000   1.0000   1.0000
     1.0000   1.0000   1.0000   1.0000   1.0000   1.0000   1.0000   1.0000
     1.0000   1.0000   1.0000   1.0000   1.0000   1.0000   1.0000   1.0000
     1.0000   1.0000   1.0000   1.0000   1.0000   1.0000   1.0000   1.0000
     1.0000   1.0000   1.0000   1.0000   1.0000   1.0000   1.0000   1.0000
     1.0000   1.0000   1.0000   1.0000   1.0000   1.0000   1.0000   1.0000
     1.0000   1.0000   1.0000   1.0000   1.0000   1.0000   1.0000   1.0000
     1.0000   1.0000   1.0000   1.0000   1.0000   1.0000   1.0000   1.0000
     1.0000   1.0000   1.0000   1.0000   1.0000   1.0000   1.0000   1.0000
     1.0000   1.0000   1.0000   1.0000   1.0000   1.0000   1.0000   1.0000
     1.0000   1.0000   1.0000   1.0000   0.0000   0.0000   0.0000   0.0000
     0.0000   0.0000   0.0000   0.0000   0.0000   0.0000   0.0000   0.0000
     0.0000   0.0000

          k = 0.0000 0.2391 0.2337 ( 32949 PWs)   bands (ev):

   -79.4518 -79.4514 -79.4501 -79.4496 -46.2784 -46.2771 -46.2767 -46.2754
   -45.5238 -45.5235 -45.5223 -45.5216 -44.7485 -44.7476 -44.7468 -44.7459
   -41.5904 -41.5904 -41.5789 -41.5789 -14.3730 -14.3003 -14.2308 -14.0790
   -13.7139 -13.7032 -13.6676 -13.6609 -13.6338 -13.6218 -13.5614 -13.5583
   -13.5386 -13.5324 -13.3132 -13.2680 -11.1867 -11.1623 -11.1567 -11.1110
   -11.0984 -11.0882 -11.0092 -10.9101 -10.8934 -10.8743 -10.8632 -10.8154
    -0.9377  -0.4632  -0.3032  -0.2161   0.4312   0.8467   0.9387   1.0520
     1.1997   1.3062   1.5852   1.6533   1.7108   1.7547   1.7677   2.0817
     2.8289   2.9987   3.2835   3.3799   3.3801   3.5925   3.6595   3.7891
     3.7936   3.9592   4.1010   4.2070   4.2914   4.3470   4.5053   4.6369
     4.6616   4.6766   4.7969   4.9301   5.0576   5.0767   5.1016   5.3234
     5.3486   5.4757   5.5247   5.8336   5.9490   6.1030   6.2977   6.5530
     6.8900   6.9281   7.0781   7.2053   7.2516   7.3743   7.4252   7.5671
     7.7520   7.9079   8.1415   8.1647   8.2562   8.2582   8.3636   8.5111
     8.5331   8.8942   8.9938   9.0075  12.7069  14.5397  14.7407  14.9130
    15.6093  15.6978  16.3648  16.6940  16.9919  17.0705  17.1137  17.3591
    17.6395  17.7240

     occupation numbers 
     1.0000   1.0000   1.0000   1.0000   1.0000   1.0000   1.0000   1.0000
     1.0000   1.0000   1.0000   1.0000   1.0000   1.0000   1.0000   1.0000
     1.0000   1.0000   1.0000   1.0000   1.0000   1.0000   1.0000   1.0000
     1.0000   1.0000   1.0000   1.0000   1.0000   1.0000   1.0000   1.0000
     1.0000   1.0000   1.0000   1.0000   1.0000   1.0000   1.0000   1.0000
     1.0000   1.0000   1.0000   1.0000   1.0000   1.0000   1.0000   1.0000
     1.0000   1.0000   1.0000   1.0000   1.0000   1.0000   1.0000   1.0000
     1.0000   1.0000   1.0000   1.0000   1.0000   1.0000   1.0000   1.0000
     1.0000   1.0000   1.0000   1.0000   1.0000   1.0000   1.0000   1.0000
     1.0000   1.0000   1.0000   1.0000   1.0000   1.0000   1.0000   1.0000
     1.0000   1.0000   1.0000   1.0000   1.0000   1.0000   1.0000   1.0000
     1.0000   1.0000   1.0000   1.0000   1.0000   1.0000   1.0000   1.0000
     1.0000   1.0000   1.0000   1.0000   1.0000   1.0000   1.0000   1.0000
     1.0000   1.0000   1.0000   1.0000   1.0000   1.0000   1.0000   1.0000
     1.0000   1.0000   1.0000   1.0000   0.0000   0.0000   0.0000   0.0000
     0.0000   0.0000   0.0000   0.0000   0.0000   0.0000   0.0000   0.0000
     0.0000   0.0000

          k = 0.0000 0.2391 0.4675 ( 32955 PWs)   bands (ev):

   -79.4518 -79.4514 -79.4501 -79.4496 -46.2783 -46.2772 -46.2766 -46.2755
   -45.5238 -45.5235 -45.5223 -45.5216 -44.7485 -44.7476 -44.7468 -44.7459
   -41.5904 -41.5904 -41.5789 -41.5789 -14.3832 -14.3094 -14.1829 -14.0825
   -13.7138 -13.7000 -13.6607 -13.6583 -13.5963 -13.5901 -13.5528 -13.5516
   -13.5342 -13.5169 -13.3483 -13.3079 -11.2084 -11.2005 -11.1961 -11.0930
   -11.0855 -11.0803 -11.0535 -10.9287 -10.9231 -10.8974 -10.8349 -10.8131
    -0.8697  -0.4654  -0.3251  -0.2119   0.6641   0.9104   1.1065   1.1628
     1.2632   1.3573   1.6107   1.6497   1.6776   1.7288   1.7737   2.0164
     2.8222   2.9565   3.2156   3.2877   3.3782   3.4898   3.5212   3.6809
     3.7919   3.9298   4.0960   4.1304   4.2320   4.3254   4.3613   4.4311
     4.5855   4.6519   4.9368   4.9478   5.1198   5.1906   5.2112   5.3306
     5.3881   5.5414   5.5662   5.8712   5.9640   6.1860   6.2659   6.5039
     6.8818   6.9126   7.0947   7.2147   7.2630   7.3257   7.3329   7.4917
     7.8275   7.9560   8.1792   8.1989   8.2952   8.3055   8.4274   8.4428
     8.4722   8.8354   8.9792   9.0090  13.0804  14.5894  14.8554  15.0586
    15.6726  15.6955  16.1640  16.5975  16.8075  16.8148  16.9789  16.9977
    17.4566  17.6704

     occupation numbers 
     1.0000   1.0000   1.0000   1.0000   1.0000   1.0000   1.0000   1.0000
     1.0000   1.0000   1.0000   1.0000   1.0000   1.0000   1.0000   1.0000
     1.0000   1.0000   1.0000   1.0000   1.0000   1.0000   1.0000   1.0000
     1.0000   1.0000   1.0000   1.0000   1.0000   1.0000   1.0000   1.0000
     1.0000   1.0000   1.0000   1.0000   1.0000   1.0000   1.0000   1.0000
     1.0000   1.0000   1.0000   1.0000   1.0000   1.0000   1.0000   1.0000
     1.0000   1.0000   1.0000   1.0000   1.0000   1.0000   1.0000   1.0000
     1.0000   1.0000   1.0000   1.0000   1.0000   1.0000   1.0000   1.0000
     1.0000   1.0000   1.0000   1.0000   1.0000   1.0000   1.0000   1.0000
     1.0000   1.0000   1.0000   1.0000   1.0000   1.0000   1.0000   1.0000
     1.0000   1.0000   1.0000   1.0000   1.0000   1.0000   1.0000   1.0000
     1.0000   1.0000   1.0000   1.0000   1.0000   1.0000   1.0000   1.0000
     1.0000   1.0000   1.0000   1.0000   1.0000   1.0000   1.0000   1.0000
     1.0000   1.0000   1.0000   1.0000   1.0000   1.0000   1.0000   1.0000
     1.0000   1.0000   1.0000   1.0000   0.0000   0.0000   0.0000   0.0000
     0.0000   0.0000   0.0000   0.0000   0.0000   0.0000   0.0000   0.0000
     0.0000   0.0000

          k = 0.0000 0.2391 0.7012 ( 32947 PWs)   bands (ev):

   -79.4518 -79.4514 -79.4501 -79.4496 -46.2781 -46.2773 -46.2765 -46.2757
   -45.5238 -45.5235 -45.5223 -45.5216 -44.7484 -44.7477 -44.7467 -44.7460
   -41.5904 -41.5903 -41.5789 -41.5789 -14.4006 -14.3483 -14.0845 -14.0201
   -13.7287 -13.7188 -13.6602 -13.6553 -13.5986 -13.5939 -13.5546 -13.5533
   -13.5280 -13.5236 -13.3383 -13.2980 -11.2670 -11.2473 -11.2026 -11.1340
   -11.0778 -11.0536 -11.0528 -10.9645 -10.9453 -10.9341 -10.8069 -10.8000
    -0.7622  -0.4474  -0.3827  -0.2632   1.0050   1.0448   1.1880   1.2533
     1.4081   1.4634   1.5382   1.5545   1.6896   1.8556   1.9091   1.9385
     2.7708   2.9389   3.0535   3.1688   3.3447   3.3909   3.4362   3.6577
     3.6887   3.7974   3.8713   4.0258   4.2064   4.2071   4.3516   4.3960
     4.4701   4.6439   4.8504   4.8532   5.2560   5.3710   5.3772   5.3980
     5.4838   5.6138   5.6333   5.8573   5.9924   6.1854   6.3092   6.4726
     6.8820   6.9086   7.1196   7.2057   7.2338   7.2636   7.2909   7.4246
     7.9402   8.0369   8.1984   8.2276   8.3341   8.3418   8.3515   8.3726
     8.5271   8.7668   8.9675   8.9992  13.5801  14.7024  14.8015  15.2793
    15.6265  15.7358  16.0054  16.4408  16.5806  16.7114  16.8687  16.9033
    17.2575  17.5831

     occupation numbers 
     1.0000   1.0000   1.0000   1.0000   1.0000   1.0000   1.0000   1.0000
     1.0000   1.0000   1.0000   1.0000   1.0000   1.0000   1.0000   1.0000
     1.0000   1.0000   1.0000   1.0000   1.0000   1.0000   1.0000   1.0000
     1.0000   1.0000   1.0000   1.0000   1.0000   1.0000   1.0000   1.0000
     1.0000   1.0000   1.0000   1.0000   1.0000   1.0000   1.0000   1.0000
     1.0000   1.0000   1.0000   1.0000   1.0000   1.0000   1.0000   1.0000
     1.0000   1.0000   1.0000   1.0000   1.0000   1.0000   1.0000   1.0000
     1.0000   1.0000   1.0000   1.0000   1.0000   1.0000   1.0000   1.0000
     1.0000   1.0000   1.0000   1.0000   1.0000   1.0000   1.0000   1.0000
     1.0000   1.0000   1.0000   1.0000   1.0000   1.0000   1.0000   1.0000
     1.0000   1.0000   1.0000   1.0000   1.0000   1.0000   1.0000   1.0000
     1.0000   1.0000   1.0000   1.0000   1.0000   1.0000   1.0000   1.0000
     1.0000   1.0000   1.0000   1.0000   1.0000   1.0000   1.0000   1.0000
     1.0000   1.0000   1.0000   1.0000   1.0000   1.0000   1.0000   1.0000
     1.0000   1.0000   1.0000   1.0000   0.0000   0.0000   0.0000   0.0000
     0.0000   0.0000   0.0000   0.0000   0.0000   0.0000   0.0000   0.0000
     0.0000   0.0000

          k = 0.0000 0.2391 0.9349 ( 32946 PWs)   bands (ev):

   -79.4518 -79.4514 -79.4501 -79.4496 -46.2780 -46.2775 -46.2763 -46.2759
   -45.5238 -45.5235 -45.5223 -45.5216 -44.7484 -44.7478 -44.7467 -44.7461
   -41.5904 -41.5903 -41.5789 -41.5789 -14.4046 -14.3863 -13.9646 -13.9332
   -13.7797 -13.7763 -13.6570 -13.6520 -13.6274 -13.6195 -13.5607 -13.5604
   -13.5335 -13.5331 -13.2869 -13.2697 -11.3014 -11.2894 -11.2009 -11.1824
   -11.0603 -11.0480 -11.0163 -10.9874 -10.9696 -10.9642 -10.7918 -10.7905
    -0.6273  -0.4887  -0.4042  -0.3397   1.1492   1.2074   1.3170   1.3354
     1.3946   1.4568   1.5329   1.6092   1.7261   1.7989   2.0909   2.1035
     2.7180   2.8334   2.9608   3.0418   3.2255   3.2891   3.4270   3.4885
     3.6899   3.7512   3.7766   3.8704   4.1576   4.1766   4.3555   4.3642
     4.5339   4.6522   4.7253   4.7573   5.3430   5.3996   5.4428   5.4867
     5.5779   5.7045   5.7887   5.8627   5.9436   6.0526   6.4144   6.4653
     6.9006   6.9132   7.1501   7.1727   7.1879   7.1968   7.3263   7.3717
     8.0752   8.1421   8.1949   8.2338   8.2485   8.2564   8.3612   8.3634
     8.6195   8.6965   8.9690   8.9828  14.1018  14.5514  14.8909  15.1066
    15.7458  15.7590  16.0835  16.2267  16.5588  16.6871  16.7756  16.8000
    17.2526  17.4532

     occupation numbers 
     1.0000   1.0000   1.0000   1.0000   1.0000   1.0000   1.0000   1.0000
     1.0000   1.0000   1.0000   1.0000   1.0000   1.0000   1.0000   1.0000
     1.0000   1.0000   1.0000   1.0000   1.0000   1.0000   1.0000   1.0000
     1.0000   1.0000   1.0000   1.0000   1.0000   1.0000   1.0000   1.0000
     1.0000   1.0000   1.0000   1.0000   1.0000   1.0000   1.0000   1.0000
     1.0000   1.0000   1.0000   1.0000   1.0000   1.0000   1.0000   1.0000
     1.0000   1.0000   1.0000   1.0000   1.0000   1.0000   1.0000   1.0000
     1.0000   1.0000   1.0000   1.0000   1.0000   1.0000   1.0000   1.0000
     1.0000   1.0000   1.0000   1.0000   1.0000   1.0000   1.0000   1.0000
     1.0000   1.0000   1.0000   1.0000   1.0000   1.0000   1.0000   1.0000
     1.0000   1.0000   1.0000   1.0000   1.0000   1.0000   1.0000   1.0000
     1.0000   1.0000   1.0000   1.0000   1.0000   1.0000   1.0000   1.0000
     1.0000   1.0000   1.0000   1.0000   1.0000   1.0000   1.0000   1.0000
     1.0000   1.0000   1.0000   1.0000   1.0000   1.0000   1.0000   1.0000
     1.0000   1.0000   1.0000   1.0000   0.0000   0.0000   0.0000   0.0000
     0.0000   0.0000   0.0000   0.0000   0.0000   0.0000   0.0000   0.0000
     0.0000   0.0000

          k = 0.0000 0.4781 0.0000 ( 33016 PWs)   bands (ev):

   -79.4518 -79.4514 -79.4501 -79.4496 -46.2783 -46.2772 -46.2766 -46.2756
   -45.5238 -45.5235 -45.5223 -45.5216 -44.7484 -44.7476 -44.7467 -44.7459
   -41.5887 -41.5886 -41.5807 -41.5806 -14.3349 -14.2893 -14.2412 -14.1238
   -13.7001 -13.6973 -13.6615 -13.6492 -13.6358 -13.6321 -13.5754 -13.5753
   -13.5280 -13.5002 -13.3228 -13.3074 -11.1919 -11.1791 -11.1651 -11.1245
   -11.0976 -11.0768 -11.0156 -10.9512 -10.8826 -10.8249 -10.8209 -10.8140
    -0.8504  -0.3927  -0.3813  -0.2156   0.4943   0.8738   0.9108   0.9349
     1.2982   1.3379   1.4640   1.6029   1.7425   1.8627   1.8747   2.0197
     2.8970   3.0172   3.0736   3.3803   3.4612   3.4802   3.5274   3.7425
     3.8465   4.0203   4.0828   4.1938   4.2323   4.2984   4.5546   4.6846
     4.6889   4.7817   4.8410   4.8520   5.0289   5.1063   5.1410   5.4037
     5.4219   5.4323   5.4855   5.7504   5.9313   5.9315   6.2242   6.3844
     6.9053   6.9113   7.0142   7.1366   7.2528   7.4994   7.5165   7.6994
     7.7226   7.8160   8.0864   8.1346   8.1778   8.2589   8.3577   8.3924
     8.5585   9.0370   9.0412   9.0704  13.0025  14.7119  14.7741  14.9344
    15.6736  16.0094  16.0664  16.9209  16.9948  17.0273  17.4549  17.4851
    17.5761  17.7588

     occupation numbers 
     1.0000   1.0000   1.0000   1.0000   1.0000   1.0000   1.0000   1.0000
     1.0000   1.0000   1.0000   1.0000   1.0000   1.0000   1.0000   1.0000
     1.0000   1.0000   1.0000   1.0000   1.0000   1.0000   1.0000   1.0000
     1.0000   1.0000   1.0000   1.0000   1.0000   1.0000   1.0000   1.0000
     1.0000   1.0000   1.0000   1.0000   1.0000   1.0000   1.0000   1.0000
     1.0000   1.0000   1.0000   1.0000   1.0000   1.0000   1.0000   1.0000
     1.0000   1.0000   1.0000   1.0000   1.0000   1.0000   1.0000   1.0000
     1.0000   1.0000   1.0000   1.0000   1.0000   1.0000   1.0000   1.0000
     1.0000   1.0000   1.0000   1.0000   1.0000   1.0000   1.0000   1.0000
     1.0000   1.0000   1.0000   1.0000   1.0000   1.0000   1.0000   1.0000
     1.0000   1.0000   1.0000   1.0000   1.0000   1.0000   1.0000   1.0000
     1.0000   1.0000   1.0000   1.0000   1.0000   1.0000   1.0000   1.0000
     1.0000   1.0000   1.0000   1.0000   1.0000   1.0000   1.0000   1.0000
     1.0000   1.0000   1.0000   1.0000   1.0000   1.0000   1.0000   1.0000
     1.0000   1.0000   1.0000   1.0000   0.0000   0.0000   0.0000   0.0000
     0.0000   0.0000   0.0000   0.0000   0.0000   0.0000   0.0000   0.0000
     0.0000   0.0000

          k = 0.0000 0.4781 0.2337 ( 32976 PWs)   bands (ev):

   -79.4518 -79.4514 -79.4501 -79.4496 -46.2782 -46.2772 -46.2765 -46.2756
   -45.5238 -45.5235 -45.5223 -45.5216 -44.7484 -44.7477 -44.7467 -44.7460
[...]
     atom   22 type  3   force =    -0.07675928   -0.13038463   -0.05693980
     atom   23 type  3   force =    -0.07677018    0.13039119    0.05693210
     atom   24 type  3   force =     0.07675928   -0.13038463    0.05693980
     atom   25 type  3   force =    -0.07677018   -0.13039119    0.05693210
     atom   26 type  3   force =     0.07675928    0.13038463    0.05693980
     atom   27 type  3   force =     0.07677018   -0.13039119   -0.05693210
     atom   28 type  3   force =    -0.07675928    0.13038463   -0.05693980
     The non-local contrib.  to forces
     atom    1 type  2   force =     0.00000000    0.00000000    0.00000000
     atom    2 type  2   force =     0.00000000    0.00000000    0.00000000
     atom    3 type  2   force =     0.00000000    0.00000000    0.00000000
     atom    4 type  2   force =     0.00000000   -0.00000000    0.00000000
     atom    5 type  1   force =    -0.05846081    0.00000000    0.05448110
     atom    6 type  1   force =     0.05843696    0.00000000    0.05447405
     atom    7 type  1   force =     0.05846081    0.00000000   -0.05448110
     atom    8 type  1   force =    -0.05843696    0.00000000   -0.05447405
     atom    9 type  4   force =    -0.00508036    0.00000000    0.00885610
     atom   10 type  4   force =     0.00517571    0.00000000    0.00877406
     atom   11 type  4   force =     0.00508036    0.00000000   -0.00885610
     atom   12 type  4   force =    -0.00517571    0.00000000   -0.00877406
     atom   13 type  3   force =     0.14903717    0.00000000   -1.44160046
     atom   14 type  3   force =    -0.14902273    0.00000000   -1.44160052
     atom   15 type  3   force =    -0.14903717    0.00000000    1.44160046
     atom   16 type  3   force =     0.14902273    0.00000000    1.44160052
     atom   17 type  3   force =     1.15771264    0.00000000   -0.65680856
     atom   18 type  3   force =    -1.15770732    0.00000000   -0.65685289
     atom   19 type  3   force =    -1.15771264    0.00000000    0.65680856
     atom   20 type  3   force =     1.15770732    0.00000000    0.65685289
     atom   21 type  3   force =    -0.63346618   -0.98099714    0.68689854
     atom   22 type  3   force =     0.63350159    0.98101028    0.68688481
     atom   23 type  3   force =     0.63346618   -0.98099714   -0.68689854
     atom   24 type  3   force =    -0.63350159    0.98101028   -0.68688481
     atom   25 type  3   force =     0.63346618    0.98099714   -0.68689854
     atom   26 type  3   force =    -0.63350159   -0.98101028   -0.68688481
     atom   27 type  3   force =    -0.63346618    0.98099714    0.68689854
     atom   28 type  3   force =     0.63350159   -0.98101028    0.68688481
     The ionic contribution  to forces
     atom    1 type  2   force =     0.00046178   -0.00007634    0.00022500
     atom    2 type  2   force =    -0.00025673    0.00021137    0.00005353
     atom    3 type  2   force =     0.00059121    0.00020831    0.00028918
     atom    4 type  2   force =    -0.00012730   -0.00007942   -0.00001065
     atom    5 type  1   force =     3.31069390   -0.00083407   -1.38807114
     atom    6 type  1   force =    -3.30863147    0.00081417   -1.38765173
     atom    7 type  1   force =    -3.31115678    0.00081417    1.38815002
     atom    8 type  1   force =     3.30877173   -0.00083407    1.38748233
     atom    9 type  4   force =    -0.88181805   -0.00019505    2.06720835
     atom   10 type  4   force =     0.88286275    0.00018173    2.06651133
     atom   11 type  4   force =     0.88194260    0.00018173   -2.06729642
     atom   12 type  4   force =    -0.88301026   -0.00019505   -2.06647040
     atom   13 type  3   force =    -3.94088718   -0.00026647    1.57456935
     atom   14 type  3   force =     3.94167983    0.00020525    1.57513585
     atom   15 type  3   force =     3.94114669    0.00020525   -1.57452788
     atom   16 type  3   force =    -3.94184299   -0.00026647   -1.57511224
     atom   17 type  3   force =    -1.71603772   -0.00026052    2.88431654
     atom   18 type  3   force =     1.71734209    0.00019845    2.88445014
     atom   19 type  3   force =     1.71581617    0.00019845   -2.88438635
     atom   20 type  3   force =    -1.71700664   -0.00026052   -2.88438858
     atom   21 type  3   force =     0.76591765    2.72649554   -1.50437090
     atom   22 type  3   force =    -0.76526345   -2.72625273   -1.50465608
     atom   23 type  3   force =    -0.76615020    2.72689811    1.50391175
     atom   24 type  3   force =     0.76522918   -2.72680070    1.50442671
     atom   25 type  3   force =    -0.76602868   -2.72643156    1.50414302
     atom   26 type  3   force =     0.76512203    2.72635870    1.50464586
     atom   27 type  3   force =     0.76602479   -2.72693755   -1.50415176
     atom   28 type  3   force =    -0.76538496    2.72671928   -1.50442482
     The local contribution  to forces
     atom    1 type  2   force =     0.00000000   -0.00000000   -0.00000000
     atom    2 type  2   force =    -0.00460963   -0.00016967   -0.00216827
     atom    3 type  2   force =     0.00008811   -0.00182338    0.00004314
     atom    4 type  2   force =    -0.00452153   -0.00165372   -0.00221141
     atom    5 type  1   force =    -3.26402781   -0.00854241    1.32613415
     atom    6 type  1   force =     3.24226818   -0.00213561    1.32545440
     atom    7 type  1   force =     3.24277142   -0.00213560   -1.33636979
     atom    8 type  1   force =    -3.26012097   -0.00854241   -1.33598264
     atom    9 type  4   force =     0.86509011   -0.00001422   -2.03533856
     atom   10 type  4   force =    -0.86613930   -0.00000356   -2.03455063
     atom   11 type  4   force =    -0.86511536   -0.00000356    2.03541096
     atom   12 type  4   force =     0.86615712   -0.00001420    2.03471377
     atom   13 type  3   force =     3.78494194   -0.00201109   -0.03609913
     atom   14 type  3   force =    -3.79034861   -0.00050277   -0.03688573
     atom   15 type  3   force =    -3.78943445   -0.00050277    0.03405312
     atom   16 type  3   force =     3.78554471   -0.00201111    0.03427830
     atom   17 type  3   force =     0.43865610   -0.00202485   -2.19942096
     atom   18 type  3   force =    -0.44368658   -0.00050622   -2.19969988
     atom   19 type  3   force =    -0.44242645   -0.00050621    2.19736527
     atom   20 type  3   force =     0.43964752   -0.00202487    2.19707902
     atom   21 type  3   force =    -0.06259328   -1.62330395    0.76457947
     atom   22 type  3   force =     0.05694862    1.62136937    0.76497313
     atom   23 type  3   force =     0.05761754   -1.62251841   -0.76691728
     atom   24 type  3   force =    -0.06193097    1.62001769   -0.76696898
     atom   25 type  3   force =     0.05767393    1.62169515   -0.76684761
     atom   26 type  3   force =    -0.06170544   -1.62331072   -0.76724769
     atom   27 type  3   force =    -0.06281883    1.62001094    0.76430076
     atom   28 type  3   force =     0.05689224   -1.62219263    0.76504279
     The core correction contribution to forces
     atom    1 type  2   force =     0.00000000    0.00000000    0.00000000
     atom    2 type  2   force =     0.00000000    0.00000000    0.00000000
     atom    3 type  2   force =     0.00000000    0.00000000    0.00000000
     atom    4 type  2   force =     0.00000000    0.00000000    0.00000000
     atom    5 type  1   force =     0.00459790    0.00026299   -0.00072036
     atom    6 type  1   force =    -0.00391839    0.00006574   -0.00073518
     atom    7 type  1   force =    -0.00385043    0.00006574    0.00111299
     atom    8 type  1   force =     0.00452800    0.00026299    0.00109983
     atom    9 type  4   force =     0.00028937    0.00000609   -0.00358640
     atom   10 type  4   force =    -0.00028175    0.00000152   -0.00357867
     atom   11 type  4   force =    -0.00027359    0.00000152    0.00359486
     atom   12 type  4   force =     0.00029776    0.00000609    0.00358764
     atom   13 type  3   force =    -0.00190687   -0.00000123    0.01077918
     atom   14 type  3   force =     0.00190272   -0.00000031    0.01077895
     atom   15 type  3   force =     0.00190255   -0.00000031   -0.01078305
     atom   16 type  3   force =    -0.00190634   -0.00000123   -0.01078155
     atom   17 type  3   force =    -0.00778235   -0.00000121    0.00569670
     atom   18 type  3   force =     0.00777480   -0.00000030    0.00569605
     atom   19 type  3   force =     0.00777668   -0.00000030   -0.00569790
     atom   20 type  3   force =    -0.00778104   -0.00000121   -0.00569844
     atom   21 type  3   force =     0.00437923    0.00657950   -0.00534676
     atom   22 type  3   force =    -0.00438343   -0.00658285   -0.00534753
     atom   23 type  3   force =    -0.00438241    0.00658159    0.00534562
     atom   24 type  3   force =     0.00437971   -0.00658375    0.00534452
     atom   25 type  3   force =    -0.00438253   -0.00658263    0.00534564
     atom   26 type  3   force =     0.00437923    0.00657962    0.00534443
     atom   27 type  3   force =     0.00437970   -0.00658363   -0.00534685
     atom   28 type  3   force =    -0.00438331    0.00658182   -0.00534751
     The Hubbard contrib.    to forces
     atom    1 type  2   force =     0.00000000    0.00000000    0.00000000
     atom    2 type  2   force =     0.00000000    0.00000000    0.00000000
     atom    3 type  2   force =     0.00000000    0.00000000    0.00000000
     atom    4 type  2   force =     0.00000000    0.00000000    0.00000000
     atom    5 type  1   force =     0.00000000    0.00000000    0.00000000
     atom    6 type  1   force =     0.00000000    0.00000000    0.00000000
     atom    7 type  1   force =     0.00000000    0.00000000    0.00000000
     atom    8 type  1   force =     0.00000000    0.00000000    0.00000000
     atom    9 type  4   force =     0.00000000    0.00000000    0.00000000
     atom   10 type  4   force =     0.00000000    0.00000000    0.00000000
     atom   11 type  4   force =     0.00000000    0.00000000    0.00000000
     atom   12 type  4   force =     0.00000000    0.00000000    0.00000000
     atom   13 type  3   force =     0.00000000    0.00000000    0.00000000
     atom   14 type  3   force =     0.00000000    0.00000000    0.00000000
     atom   15 type  3   force =     0.00000000    0.00000000    0.00000000
     atom   16 type  3   force =     0.00000000    0.00000000    0.00000000
     atom   17 type  3   force =     0.00000000    0.00000000    0.00000000
     atom   18 type  3   force =     0.00000000    0.00000000    0.00000000
     atom   19 type  3   force =     0.00000000    0.00000000    0.00000000
     atom   20 type  3   force =     0.00000000    0.00000000    0.00000000
     atom   21 type  3   force =     0.00000000    0.00000000    0.00000000
     atom   22 type  3   force =     0.00000000    0.00000000    0.00000000
     atom   23 type  3   force =     0.00000000    0.00000000    0.00000000
     atom   24 type  3   force =     0.00000000    0.00000000    0.00000000
     atom   25 type  3   force =     0.00000000    0.00000000    0.00000000
     atom   26 type  3   force =     0.00000000    0.00000000    0.00000000
     atom   27 type  3   force =     0.00000000    0.00000000    0.00000000
     atom   28 type  3   force =     0.00000000    0.00000000    0.00000000
     The SCF correction term to forces
     atom    1 type  2   force =    -0.00000000    0.00000000   -0.00000000
     atom    2 type  2   force =     0.00000000    0.00000000    0.00000000
     atom    3 type  2   force =    -0.00000000    0.00000000   -0.00000000
     atom    4 type  2   force =     0.00000000    0.00000000    0.00000000
     atom    5 type  1   force =     0.00000219    0.00000000   -0.00000018
     atom    6 type  1   force =     0.00000082    0.00000000   -0.00000073
     atom    7 type  1   force =    -0.00000218    0.00000000    0.00000019
     atom    8 type  1   force =    -0.00000080    0.00000001    0.00000073
     atom    9 type  4   force =     0.00000086    0.00000000   -0.00000010
     atom   10 type  4   force =     0.00000113   -0.00000000    0.00000038
     atom   11 type  4   force =    -0.00000086   -0.00000000    0.00000010
     atom   12 type  4   force =    -0.00000113    0.00000000   -0.00000038
     atom   13 type  3   force =     0.00000201    0.00000000    0.00000102
     atom   14 type  3   force =     0.00000184   -0.00000000   -0.00000161
     atom   15 type  3   force =    -0.00000201   -0.00000000   -0.00000102
     atom   16 type  3   force =    -0.00000184    0.00000000    0.00000161
     atom   17 type  3   force =    -0.00000192    0.00000000   -0.00000124
     atom   18 type  3   force =    -0.00000202   -0.00000000    0.00000062
     atom   19 type  3   force =     0.00000192   -0.00000000    0.00000124
     atom   20 type  3   force =     0.00000202    0.00000000   -0.00000062
     atom   21 type  3   force =     0.00000097   -0.00000208   -0.00000134
     atom   22 type  3   force =     0.00000114   -0.00000265    0.00000162
     atom   23 type  3   force =    -0.00000097   -0.00000208    0.00000134
     atom   24 type  3   force =    -0.00000114   -0.00000265   -0.00000162
     atom   25 type  3   force =    -0.00000097    0.00000208    0.00000134
     atom   26 type  3   force =    -0.00000114    0.00000265   -0.00000162
     atom   27 type  3   force =     0.00000097    0.00000208   -0.00000134
     atom   28 type  3   force =     0.00000114    0.00000265    0.00000162

     Total force =     0.576068     Total SCF correction =     0.000011


     Computing stress (Cartesian axis) and pressure


     negative rho (up, down):  0.000E+00 4.466E-04
          total   stress  (Ry/bohr**3)                   (kbar)     P=      288.25
   0.00195299   0.00000000   0.00000007          287.30        0.00        0.01
   0.00000000   0.00205164   0.00000000            0.00      301.81        0.00
   0.00000007   0.00000000   0.00187376            0.01        0.00      275.64

     kinetic stress (kbar)  36129.59      0.00     -0.00
                                0.00  36032.96      0.00
                               -0.00      0.00  36102.08

     local   stress (kbar)  -3373.39     -0.11      0.03
                               -0.11  -4430.72     -0.00
                                0.03     -0.00   -414.13

     nonloc. stress (kbar) -10819.71      0.00      0.00
                                0.00 -10893.23      0.00
                                0.00      0.00 -10729.44

     hartree stress (kbar)  15886.02     -0.00     -0.03
                               -0.00  16369.73      0.00
                               -0.03      0.00  14413.40

     exc-cor stress (kbar)  -4084.94      0.00      0.00
                                0.00  -4089.95     -0.00
                                0.00     -0.00  -4079.81

     corecor stress (kbar)  -3458.88     -0.00     -0.00
                               -0.00  -3444.88      0.00
                               -0.00      0.00  -3469.91

     ewald   stress (kbar) -29991.39      0.11      0.01
                                0.11 -29242.10      0.00
                                0.01      0.00 -31546.55

     hubbard stress (kbar)      0.00      0.00      0.00
                                0.00      0.00      0.00
                                0.00      0.00      0.00

     DFT-D   stress (kbar)      0.00      0.00      0.00
                                0.00      0.00      0.00
                                0.00      0.00      0.00

     XDM     stress (kbar)      0.00      0.00      0.00
                                0.00      0.00      0.00
                                0.00      0.00      0.00

     dft-nl  stress (kbar)      0.00      0.00      0.00
                                0.00      0.00      0.00
                                0.00      0.00      0.00

     TS-vdW  stress (kbar)      0.00      0.00      0.00
                                0.00      0.00      0.00
                                0.00      0.00      0.00



     init_run     :   1320.34s CPU   1601.19s WALL (       1 calls)
     electrons    : 139467.08s CPU 170099.49s WALL (       1 calls)
     forces       :    174.63s CPU    212.06s WALL (       1 calls)
     stress       :    577.99s CPU    696.42s WALL (       1 calls)

     Called by init_run:
     wfcinit      :   1303.06s CPU   1579.44s WALL (       1 calls)
     wfcinit:atom :      0.86s CPU      1.13s WALL (     184 calls)
     wfcinit:wfcr :   1297.16s CPU   1572.04s WALL (     184 calls)
     potinit      :      7.64s CPU      9.07s WALL (       1 calls)
     hinit0       :      6.84s CPU      8.28s WALL (       1 calls)

     Called by electrons:
     c_bands      : 117044.58s CPU 142790.16s WALL (      43 calls)
     sum_band     :  22115.39s CPU  26921.17s WALL (      43 calls)
     v_of_rho     :     87.67s CPU    105.22s WALL (      44 calls)
     v_h          :      6.10s CPU      7.38s WALL (      44 calls)
     v_xc         :     85.99s CPU    102.28s WALL (      46 calls)
     newd         :     93.52s CPU    129.85s WALL (      44 calls)
     PAW_pot      :     43.38s CPU     52.87s WALL (      44 calls)
     mix_rho      :     62.41s CPU     76.17s WALL (      43 calls)

     Called by c_bands:
     init_us_2    :    123.47s CPU    150.95s WALL (   16376 calls)
     cegterg      : 116089.24s CPU 141594.43s WALL (    7912 calls)

     Called by sum_band:
     sum_band:wei :      0.43s CPU      0.53s WALL (      43 calls)
     sum_band:loo :  21872.72s CPU  26604.93s WALL (      43 calls)
     sum_band:buf :     33.94s CPU     37.79s WALL (    7912 calls)
     sum_band:ini :     53.30s CPU     66.99s WALL (    7912 calls)
     sum_band:cal :   1682.36s CPU   2032.70s WALL (    7912 calls)
     sum_band:bec :      5.22s CPU      5.95s WALL (    7912 calls)
     addusdens    :    191.91s CPU    259.48s WALL (      43 calls)
     addusd:skk   :      1.17s CPU      1.44s WALL (     129 calls)
     addusd:dgemm :     61.93s CPU     98.83s WALL (     258 calls)
     addusd:qvan2 :    125.35s CPU    154.39s WALL (     258 calls)

     Called by *egterg:
     cdiaghg      :   2831.17s CPU   3507.43s WALL (   28318 calls)
     cegterg:over :   5132.27s CPU   6164.76s WALL (   20406 calls)
     cegterg:upda :   1068.89s CPU   1334.71s WALL (   20406 calls)
     cegterg:last :   2315.44s CPU   2876.68s WALL (   13742 calls)
     h_psi        :  99416.05s CPU 121315.84s WALL (   28502 calls)
     s_psi        :   2193.49s CPU   2727.06s WALL (   28502 calls)
     g_psi        :     15.97s CPU     19.36s WALL (   20406 calls)

     Called by h_psi:
     h_psi:calbec :   4394.68s CPU   5305.75s WALL (   28502 calls)
     vloc_psi     :  92745.79s CPU 113122.65s WALL (   28502 calls)
     add_vuspsi   :   2222.20s CPU   2819.59s WALL (   28502 calls)

     General routines
     calbec       :   6336.12s CPU   7645.05s WALL (   37334 calls)
     fft          :    106.11s CPU    126.26s WALL (    1138 calls)
     ffts         :     13.64s CPU     16.63s WALL (     174 calls)
     fftw         : 112448.07s CPU 137179.51s WALL ( 5776828 calls)
     interpolate  :     14.70s CPU     17.66s WALL (      88 calls)

     Parallel routines
     fft_scatt_xy :    546.23s CPU    557.78s WALL ( 5778140 calls)
     fft_scatt_yz : 109261.06s CPU 133911.97s WALL ( 5778140 calls)

     PAW routines
     PAW_pot      :     43.38s CPU     52.87s WALL (      44 calls)
     PAW_symme    :      5.23s CPU      6.62s WALL (      87 calls)

     PWSCF        :   1d15h19m CPU   1d23h57m WALL


   This run was terminated on:  16:11:27   7Feb2023            

=------------------------------------------------------------------------------=
   JOB DONE.
=------------------------------------------------------------------------------=
Note: The following floating-point exceptions are signalling: IEEE_UNDERFLOW_FLAG IEEE_DENORMAL
