
     Program PWSCF v.6.7MaX starts on  4Feb2023 at  1: 2:42 

     This program is part of the open-source Quantum ESPRESSO suite
     for quantum simulation of materials; please cite
         "P. Giannozzi et al., J. Phys.:Condens. Matter 21 395502 (2009);
         "P. Giannozzi et al., J. Phys.:Condens. Matter 29 465901 (2017);
          URL http://www.quantum-espresso.org", 
     in publications or presentations arising from this work. More details at
     http://www.quantum-espresso.org/quote

     Parallel version (MPI), running on    12 processors

     MPI processes distributed on     1 nodes
     R & G space division:  proc/nbgrp/npool/nimage =      12
     Reading input from scale_2dab-03.in

     Current dimensions of program PWSCF are:
     Max number of different atomic species (ntypx) = 10
     Max number of k-points (npk) =  40000
     Max angular momentum in pseudopotentials (lmaxx) =  3
     Message from routine read_pp_mesh:
     mesh size missing, using the one in header
     file Fe.pbe-spn-kjpaw_psl.0.2.1.UPF: wavefunction(s)  3D renormalized
     file O.pbe-n-kjpaw_psl.0.1.UPF: wavefunction(s)  2P renormalized

     Subspace diagonalization in iterative solution of the eigenvalue problem:
     a serial algorithm will be used

     Message from routine setup:
     using ibrav=0 with symmetry is DISCOURAGED, use correct ibrav instead

     Parallelization info
     --------------------
     sticks:   dense  smooth     PW     G-vecs:    dense   smooth      PW
     Min        1710     633    170               111526    25140    3532
     Max        1711     634    171               111528    25141    3535
     Sum       20521    7599   2049              1338317   301689   42399



     bravais-lattice index     =            0
     lattice parameter (alat)  =      19.9928  a.u.
     unit-cell volume          =    2232.9698 (a.u.)^3
     number of atoms/cell      =           28
     number of atomic types    =            4
     number of electrons       =       216.00
     number of Kohn-Sham states=          130
     kinetic-energy cutoff     =     100.0000  Ry
     charge density cutoff     =    1080.0000  Ry
     scf convergence threshold =      2.0E-10
     mixing beta               =       0.4000
     number of iterations used =            8  plain     mixing
     Exchange-correlation= PBE
                           (   1   4   3   4   0   0   0)

     celldm(1)=  19.992808  celldm(2)=   0.000000  celldm(3)=   0.000000
     celldm(4)=   0.000000  celldm(5)=   0.000000  celldm(6)=   0.000000

     crystal axes: (cart. coord. in units of alat)
               a(1) = (   1.000000   0.000000   0.000000 )  
               a(2) = (   0.000000   0.597590   0.000000 )  
               a(3) = (   0.000000   0.000000   0.467582 )  

     reciprocal axes: (cart. coord. in units 2 pi/alat)
               b(1) = (  1.000000  0.000000  0.000000 )  
               b(2) = (  0.000000  1.673388  0.000000 )  
               b(3) = (  0.000000  0.000000  2.138660 )  


     PseudoPot. # 1 for Fe read from file:
     /opt/QEpot/SSSP_precision_pseudos/Fe.pbe-spn-kjpaw_psl.0.2.1.UPF
     MD5 check sum: e86618425769142926afa95317d90200
     Pseudo is Projector augmented-wave + core cor, Zval = 16.0
     Generated using "atomic" code by A. Dal Corso  v.5.0.99 svn rev. 10869
     Shape of augmentation charge: PSQ
     Using radial grid of 1191 points,  6 beta functions with: 
                l(1) =   0
                l(2) =   0
                l(3) =   1
                l(4) =   1
                l(5) =   2
                l(6) =   2
     Q(r) pseudized with 0 coefficients 


     PseudoPot. # 2 for Na read from file:
     /opt/QEpot/SSSP_precision_pseudos/Na_ONCV_PBE-1.0.oncvpsp.upf
     MD5 check sum: 24a298df0a6742ae313db96548fdb2a4
     Pseudo is Norm-conserving, Zval =  9.0
     Generated using ONCVPSP code by D. R. Hamann
     Using radial grid of 1992 points,  4 beta functions with: 
                l(1) =   0
                l(2) =   0
                l(3) =   1
                l(4) =   1

     PseudoPot. # 3 for O  read from file:
     /opt/QEpot/SSSP_precision_pseudos/O.pbe-n-kjpaw_psl.0.1.UPF
     MD5 check sum: 0234752ac141de4415c5fc33072bef88
     Pseudo is Projector augmented-wave + core cor, Zval =  6.0
     Generated using "atomic" code by A. Dal Corso  v.5.0.99 svn rev. 10869
     Shape of augmentation charge: BESSEL
     Using radial grid of 1095 points,  4 beta functions with: 
                l(1) =   0
                l(2) =   0
                l(3) =   1
                l(4) =   1
     Q(r) pseudized with 0 coefficients 


     PseudoPot. # 4 for P  read from file:
     /opt/QEpot/SSSP_precision_pseudos/P.pbe-n-rrkjus_psl.1.0.0.UPF
     MD5 check sum: 8b930f418f0a4573dca56cd030ffe088
     Pseudo is Ultrasoft + core correction, Zval =  5.0
     Generated using "atomic" code by A. Dal Corso  v.5.1
     Using radial grid of 1147 points,  6 beta functions with: 
                l(1) =   0
                l(2) =   0
                l(3) =   1
                l(4) =   1
                l(5) =   2
                l(6) =   2
     Q(r) pseudized with 0 coefficients 


     atomic species   valence    mass     pseudopotential
        Fe            16.00    55.84500     Fe( 1.00)
        Na             9.00    22.98977     Na( 1.00)
        O              6.00    15.99940     O ( 1.00)
        P              5.00    30.97376     P ( 1.00)

     Starting magnetic structure 
     atomic species   magnetization
        Fe           0.312
        Na           0.000
        O            0.000
        P            0.000

      4 Sym. Ops., with inversion, found ( 2 have fractional translation)


                                    s                        frac. trans.

      isym =  1     identity                                     

 cryst.   s( 1) = (     1          0          0      )
                  (     0          1          0      )
                  (     0          0          1      )

 cart.    s( 1) = (  1.0000000  0.0000000  0.0000000 )
                  (  0.0000000  1.0000000  0.0000000 )
                  (  0.0000000  0.0000000  1.0000000 )


      isym =  2     180 deg rotation - cart. axis [0,1,0]        

 cryst.   s( 2) = (    -1          0          0      )    f =(  0.0000000 )
                  (     0          1          0      )       ( -0.4999980 )
                  (     0          0         -1      )       (  0.0000000 )

 cart.    s( 2) = ( -1.0000000  0.0000000  0.0000000 )    f =(  0.0000000 )
                  (  0.0000000  1.0000000  0.0000000 )       ( -0.2987938 )
                  (  0.0000000  0.0000000 -1.0000000 )       (  0.0000000 )


      isym =  3     inversion                                    

 cryst.   s( 3) = (    -1          0          0      )
                  (     0         -1          0      )
                  (     0          0         -1      )

 cart.    s( 3) = ( -1.0000000  0.0000000  0.0000000 )
                  (  0.0000000 -1.0000000  0.0000000 )
                  (  0.0000000  0.0000000 -1.0000000 )


      isym =  4     inv. 180 deg rotation - cart. axis [0,1,0]   

 cryst.   s( 4) = (     1          0          0      )    f =(  0.0000000 )
                  (     0         -1          0      )       (  0.4999980 )
                  (     0          0          1      )       (  0.0000000 )

 cart.    s( 4) = (  1.0000000  0.0000000  0.0000000 )    f =(  0.0000000 )
                  (  0.0000000 -1.0000000  0.0000000 )       (  0.2987938 )
                  (  0.0000000  0.0000000  1.0000000 )       (  0.0000000 )


   Cartesian axes

     site n.     atom                  positions (alat units)
         1           Na  tau(   1) = (   0.0000000   0.0000000   0.0000000  )
         2           Na  tau(   2) = (   0.5000030   0.0000000   0.2337926  )
         3           Na  tau(   3) = (   0.0000000   0.2987962   0.0000000  )
         4           Na  tau(   4) = (   0.5000030   0.2987962   0.2337926  )
         5           Fe  tau(   5) = (   0.2870220   0.4481948   0.4612168  )
         6           Fe  tau(   6) = (   0.2129810   0.1493981   0.2274242  )
         7           Fe  tau(   7) = (   0.7129840   0.1493981   0.0063685  )
         8           Fe  tau(   8) = (   0.7870240   0.4481948   0.2401611  )
         9           P   tau(   9) = (   0.1083410   0.4481948   0.2069581  )
        10           P   tau(  10) = (   0.3916620   0.1493981   0.4407507  )
        11           P   tau(  11) = (   0.8916650   0.1493981   0.2606272  )
        12           P   tau(  12) = (   0.6083440   0.4481948   0.0268346  )
        13           O   tau(  13) = (   0.1140120   0.4481948   0.3518203  )
        14           O   tau(  14) = (   0.3859910   0.1493981   0.1180276  )
        15           O   tau(  15) = (   0.8859940   0.1493981   0.1157655  )
        16           O   tau(  16) = (   0.6140150   0.4481948   0.3495581  )
        17           O   tau(  17) = (   0.4685140   0.4481948   0.0753369  )
        18           O   tau(  18) = (   0.0314890   0.1493981   0.3091295  )
        19           O   tau(  19) = (   0.5314920   0.1493981   0.3922484  )
        20           O   tau(  20) = (   0.9685170   0.4481948   0.1584557  )
        21           O   tau(  21) = (   0.1755910   0.5644936   0.1457988  )
        22           O   tau(  22) = (   0.3244120   0.0330993   0.3795914  )
        23           O   tau(  23) = (   0.8244150   0.2656968   0.3217865  )
        24           O   tau(  24) = (   0.6755940   0.3318961   0.0879939  )
        25           O   tau(  25) = (   0.8244150   0.0330993   0.3217865  )
        26           O   tau(  26) = (   0.6755940   0.5644936   0.0879939  )
        27           O   tau(  27) = (   0.1755910   0.3318961   0.1457988  )
        28           O   tau(  28) = (   0.3244120   0.2656968   0.3795914  )

   Crystallographic axes

     site n.     atom                  positions (cryst. coord.)
         1           Na  tau(   1) = (  0.0000000  0.0000000  0.0000000  )
         2           Na  tau(   2) = (  0.5000030  0.0000000  0.5000030  )
         3           Na  tau(   3) = (  0.0000000  0.5000020  0.0000000  )
         4           Na  tau(   4) = (  0.5000030  0.5000020  0.5000030  )
         5           Fe  tau(   5) = (  0.2870220  0.7500040  0.9863860  )
         6           Fe  tau(   6) = (  0.2129810  0.2500010  0.4863830  )
         7           Fe  tau(   7) = (  0.7129840  0.2500010  0.0136200  )
         8           Fe  tau(   8) = (  0.7870240  0.7500040  0.5136230  )
         9           P   tau(   9) = (  0.1083410  0.7500040  0.4426130  )
        10           P   tau(  10) = (  0.3916620  0.2500010  0.9426160  )
        11           P   tau(  11) = (  0.8916650  0.2500010  0.5573930  )
        12           P   tau(  12) = (  0.6083440  0.7500040  0.0573900  )
        13           O   tau(  13) = (  0.1140120  0.7500040  0.7524240  )
        14           O   tau(  14) = (  0.3859910  0.2500010  0.2524210  )
        15           O   tau(  15) = (  0.8859940  0.2500010  0.2475830  )
        16           O   tau(  16) = (  0.6140150  0.7500040  0.7475860  )
        17           O   tau(  17) = (  0.4685140  0.7500040  0.1611200  )
        18           O   tau(  18) = (  0.0314890  0.2500010  0.6611230  )
        19           O   tau(  19) = (  0.5314920  0.2500010  0.8388860  )
        20           O   tau(  20) = (  0.9685170  0.7500040  0.3388830  )
        21           O   tau(  21) = (  0.1755910  0.9446170  0.3118140  )
        22           O   tau(  22) = (  0.3244120  0.0553880  0.8118170  )
        23           O   tau(  23) = (  0.8244150  0.4446140  0.6881920  )
        24           O   tau(  24) = (  0.6755940  0.5553910  0.1881890  )
        25           O   tau(  25) = (  0.8244150  0.0553880  0.6881920  )
        26           O   tau(  26) = (  0.6755940  0.9446170  0.1881890  )
        27           O   tau(  27) = (  0.1755910  0.5553910  0.3118140  )
        28           O   tau(  28) = (  0.3244120  0.4446140  0.8118170  )

     number of k points=    92  Marzari-Vanderbilt smearing, width (Ry)=  0.0073
                       cart. coord. in units 2pi/alat
        k(    1) = (   0.0000000   0.0000000   0.0000000), wk =   0.0031746
        k(    2) = (   0.0000000   0.0000000   0.2376289), wk =   0.0063492
        k(    3) = (   0.0000000   0.0000000   0.4752578), wk =   0.0063492
        k(    4) = (   0.0000000   0.0000000   0.7128867), wk =   0.0063492
        k(    5) = (   0.0000000   0.0000000   0.9505157), wk =   0.0063492
        k(    6) = (   0.0000000   0.2390555   0.0000000), wk =   0.0063492
        k(    7) = (   0.0000000   0.2390555   0.2376289), wk =   0.0126984
        k(    8) = (   0.0000000   0.2390555   0.4752578), wk =   0.0126984
        k(    9) = (   0.0000000   0.2390555   0.7128867), wk =   0.0126984
        k(   10) = (   0.0000000   0.2390555   0.9505157), wk =   0.0126984
        k(   11) = (   0.0000000   0.4781110   0.0000000), wk =   0.0063492
        k(   12) = (   0.0000000   0.4781110   0.2376289), wk =   0.0126984
        k(   13) = (   0.0000000   0.4781110   0.4752578), wk =   0.0126984
        k(   14) = (   0.0000000   0.4781110   0.7128867), wk =   0.0126984
        k(   15) = (   0.0000000   0.4781110   0.9505157), wk =   0.0126984
        k(   16) = (   0.0000000   0.7171664   0.0000000), wk =   0.0063492
        k(   17) = (   0.0000000   0.7171664   0.2376289), wk =   0.0126984
        k(   18) = (   0.0000000   0.7171664   0.4752578), wk =   0.0126984
        k(   19) = (   0.0000000   0.7171664   0.7128867), wk =   0.0126984
        k(   20) = (   0.0000000   0.7171664   0.9505157), wk =   0.0126984
        k(   21) = (   0.2000000   0.0000000   0.0000000), wk =   0.0063492
        k(   22) = (   0.2000000   0.0000000   0.2376289), wk =   0.0063492
        k(   23) = (   0.2000000   0.0000000   0.4752578), wk =   0.0063492
        k(   24) = (   0.2000000   0.0000000   0.7128867), wk =   0.0063492
        k(   25) = (   0.2000000   0.0000000   0.9505157), wk =   0.0063492
        k(   26) = (   0.2000000   0.2390555   0.0000000), wk =   0.0126984
        k(   27) = (   0.2000000   0.2390555   0.2376289), wk =   0.0126984
        k(   28) = (   0.2000000   0.2390555   0.4752578), wk =   0.0126984
        k(   29) = (   0.2000000   0.2390555   0.7128867), wk =   0.0126984
        k(   30) = (   0.2000000   0.2390555   0.9505157), wk =   0.0126984
        k(   31) = (   0.2000000   0.4781110   0.0000000), wk =   0.0126984
        k(   32) = (   0.2000000   0.4781110   0.2376289), wk =   0.0126984
        k(   33) = (   0.2000000   0.4781110   0.4752578), wk =   0.0126984
        k(   34) = (   0.2000000   0.4781110   0.7128867), wk =   0.0126984
        k(   35) = (   0.2000000   0.4781110   0.9505157), wk =   0.0126984
        k(   36) = (   0.2000000   0.7171664   0.0000000), wk =   0.0126984
        k(   37) = (   0.2000000   0.7171664   0.2376289), wk =   0.0126984
        k(   38) = (   0.2000000   0.7171664   0.4752578), wk =   0.0126984
        k(   39) = (   0.2000000   0.7171664   0.7128867), wk =   0.0126984
        k(   40) = (   0.2000000   0.7171664   0.9505157), wk =   0.0126984
        k(   41) = (   0.4000000   0.0000000   0.0000000), wk =   0.0063492
        k(   42) = (   0.4000000   0.0000000   0.2376289), wk =   0.0063492
        k(   43) = (   0.4000000   0.0000000   0.4752578), wk =   0.0063492
        k(   44) = (   0.4000000   0.0000000   0.7128867), wk =   0.0063492
        k(   45) = (   0.4000000   0.0000000   0.9505157), wk =   0.0063492
        k(   46) = (   0.4000000   0.2390555   0.0000000), wk =   0.0126984
        k(   47) = (   0.4000000   0.2390555   0.2376289), wk =   0.0126984
        k(   48) = (   0.4000000   0.2390555   0.4752578), wk =   0.0126984
        k(   49) = (   0.4000000   0.2390555   0.7128867), wk =   0.0126984
        k(   50) = (   0.4000000   0.2390555   0.9505157), wk =   0.0126984
        k(   51) = (   0.4000000   0.4781110   0.0000000), wk =   0.0126984
        k(   52) = (   0.4000000   0.4781110   0.2376289), wk =   0.0126984
        k(   53) = (   0.4000000   0.4781110   0.4752578), wk =   0.0126984
        k(   54) = (   0.4000000   0.4781110   0.7128867), wk =   0.0126984
        k(   55) = (   0.4000000   0.4781110   0.9505157), wk =   0.0126984
        k(   56) = (   0.4000000   0.7171664   0.0000000), wk =   0.0126984
        k(   57) = (   0.4000000   0.7171664   0.2376289), wk =   0.0126984
        k(   58) = (   0.4000000   0.7171664   0.4752578), wk =   0.0126984
        k(   59) = (   0.4000000   0.7171664   0.7128867), wk =   0.0126984
        k(   60) = (   0.4000000   0.7171664   0.9505157), wk =   0.0126984
        k(   61) = (  -0.2000000   0.0000000   0.2376289), wk =   0.0063492
        k(   62) = (  -0.2000000   0.0000000   0.4752578), wk =   0.0063492
        k(   63) = (  -0.2000000   0.0000000   0.7128867), wk =   0.0063492
        k(   64) = (  -0.2000000   0.0000000   0.9505157), wk =   0.0063492
        k(   65) = (  -0.2000000  -0.2390555   0.2376289), wk =   0.0126984
        k(   66) = (  -0.2000000  -0.2390555   0.4752578), wk =   0.0126984
        k(   67) = (  -0.2000000  -0.2390555   0.7128867), wk =   0.0126984
        k(   68) = (  -0.2000000  -0.2390555   0.9505157), wk =   0.0126984
        k(   69) = (  -0.2000000  -0.4781110   0.2376289), wk =   0.0126984
        k(   70) = (  -0.2000000  -0.4781110   0.4752578), wk =   0.0126984
        k(   71) = (  -0.2000000  -0.4781110   0.7128867), wk =   0.0126984
        k(   72) = (  -0.2000000  -0.4781110   0.9505157), wk =   0.0126984
        k(   73) = (  -0.2000000  -0.7171664   0.2376289), wk =   0.0126984
        k(   74) = (  -0.2000000  -0.7171664   0.4752578), wk =   0.0126984
        k(   75) = (  -0.2000000  -0.7171664   0.7128867), wk =   0.0126984
        k(   76) = (  -0.2000000  -0.7171664   0.9505157), wk =   0.0126984
        k(   77) = (  -0.4000000   0.0000000   0.2376289), wk =   0.0063492
        k(   78) = (  -0.4000000   0.0000000   0.4752578), wk =   0.0063492
        k(   79) = (  -0.4000000   0.0000000   0.7128867), wk =   0.0063492
        k(   80) = (  -0.4000000   0.0000000   0.9505157), wk =   0.0063492
        k(   81) = (  -0.4000000  -0.2390555   0.2376289), wk =   0.0126984
        k(   82) = (  -0.4000000  -0.2390555   0.4752578), wk =   0.0126984
        k(   83) = (  -0.4000000  -0.2390555   0.7128867), wk =   0.0126984
        k(   84) = (  -0.4000000  -0.2390555   0.9505157), wk =   0.0126984
        k(   85) = (  -0.4000000  -0.4781110   0.2376289), wk =   0.0126984
        k(   86) = (  -0.4000000  -0.4781110   0.4752578), wk =   0.0126984
        k(   87) = (  -0.4000000  -0.4781110   0.7128867), wk =   0.0126984
        k(   88) = (  -0.4000000  -0.4781110   0.9505157), wk =   0.0126984
        k(   89) = (  -0.4000000  -0.7171664   0.2376289), wk =   0.0126984
        k(   90) = (  -0.4000000  -0.7171664   0.4752578), wk =   0.0126984
        k(   91) = (  -0.4000000  -0.7171664   0.7128867), wk =   0.0126984
        k(   92) = (  -0.4000000  -0.7171664   0.9505157), wk =   0.0126984

                       cryst. coord.
        k(    1) = (   0.0000000   0.0000000   0.0000000), wk =   0.0031746
        k(    2) = (   0.0000000   0.0000000   0.1111111), wk =   0.0063492
        k(    3) = (   0.0000000   0.0000000   0.2222222), wk =   0.0063492
        k(    4) = (   0.0000000   0.0000000   0.3333333), wk =   0.0063492
        k(    5) = (   0.0000000   0.0000000   0.4444444), wk =   0.0063492
        k(    6) = (   0.0000000   0.1428571   0.0000000), wk =   0.0063492
        k(    7) = (   0.0000000   0.1428571   0.1111111), wk =   0.0126984
        k(    8) = (   0.0000000   0.1428571   0.2222222), wk =   0.0126984
        k(    9) = (   0.0000000   0.1428571   0.3333333), wk =   0.0126984
        k(   10) = (   0.0000000   0.1428571   0.4444444), wk =   0.0126984
        k(   11) = (   0.0000000   0.2857143   0.0000000), wk =   0.0063492
        k(   12) = (   0.0000000   0.2857143   0.1111111), wk =   0.0126984
        k(   13) = (   0.0000000   0.2857143   0.2222222), wk =   0.0126984
        k(   14) = (   0.0000000   0.2857143   0.3333333), wk =   0.0126984
        k(   15) = (   0.0000000   0.2857143   0.4444444), wk =   0.0126984
        k(   16) = (   0.0000000   0.4285714   0.0000000), wk =   0.0063492
        k(   17) = (   0.0000000   0.4285714   0.1111111), wk =   0.0126984
        k(   18) = (   0.0000000   0.4285714   0.2222222), wk =   0.0126984
        k(   19) = (   0.0000000   0.4285714   0.3333333), wk =   0.0126984
        k(   20) = (   0.0000000   0.4285714   0.4444444), wk =   0.0126984
        k(   21) = (   0.2000000   0.0000000   0.0000000), wk =   0.0063492
        k(   22) = (   0.2000000   0.0000000   0.1111111), wk =   0.0063492
        k(   23) = (   0.2000000   0.0000000   0.2222222), wk =   0.0063492
        k(   24) = (   0.2000000   0.0000000   0.3333333), wk =   0.0063492
        k(   25) = (   0.2000000   0.0000000   0.4444444), wk =   0.0063492
        k(   26) = (   0.2000000   0.1428571   0.0000000), wk =   0.0126984
        k(   27) = (   0.2000000   0.1428571   0.1111111), wk =   0.0126984
        k(   28) = (   0.2000000   0.1428571   0.2222222), wk =   0.0126984
        k(   29) = (   0.2000000   0.1428571   0.3333333), wk =   0.0126984
        k(   30) = (   0.2000000   0.1428571   0.4444444), wk =   0.0126984
        k(   31) = (   0.2000000   0.2857143   0.0000000), wk =   0.0126984
        k(   32) = (   0.2000000   0.2857143   0.1111111), wk =   0.0126984
        k(   33) = (   0.2000000   0.2857143   0.2222222), wk =   0.0126984
        k(   34) = (   0.2000000   0.2857143   0.3333333), wk =   0.0126984
        k(   35) = (   0.2000000   0.2857143   0.4444444), wk =   0.0126984
        k(   36) = (   0.2000000   0.4285714   0.0000000), wk =   0.0126984
        k(   37) = (   0.2000000   0.4285714   0.1111111), wk =   0.0126984
        k(   38) = (   0.2000000   0.4285714   0.2222222), wk =   0.0126984
        k(   39) = (   0.2000000   0.4285714   0.3333333), wk =   0.0126984
        k(   40) = (   0.2000000   0.4285714   0.4444444), wk =   0.0126984
        k(   41) = (   0.4000000   0.0000000   0.0000000), wk =   0.0063492
        k(   42) = (   0.4000000   0.0000000   0.1111111), wk =   0.0063492
        k(   43) = (   0.4000000   0.0000000   0.2222222), wk =   0.0063492
        k(   44) = (   0.4000000   0.0000000   0.3333333), wk =   0.0063492
        k(   45) = (   0.4000000   0.0000000   0.4444444), wk =   0.0063492
        k(   46) = (   0.4000000   0.1428571   0.0000000), wk =   0.0126984
        k(   47) = (   0.4000000   0.1428571   0.1111111), wk =   0.0126984
        k(   48) = (   0.4000000   0.1428571   0.2222222), wk =   0.0126984
        k(   49) = (   0.4000000   0.1428571   0.3333333), wk =   0.0126984
        k(   50) = (   0.4000000   0.1428571   0.4444444), wk =   0.0126984
        k(   51) = (   0.4000000   0.2857143   0.0000000), wk =   0.0126984
        k(   52) = (   0.4000000   0.2857143   0.1111111), wk =   0.0126984
        k(   53) = (   0.4000000   0.2857143   0.2222222), wk =   0.0126984
        k(   54) = (   0.4000000   0.2857143   0.3333333), wk =   0.0126984
        k(   55) = (   0.4000000   0.2857143   0.4444444), wk =   0.0126984
        k(   56) = (   0.4000000   0.4285714   0.0000000), wk =   0.0126984
        k(   57) = (   0.4000000   0.4285714   0.1111111), wk =   0.0126984
        k(   58) = (   0.4000000   0.4285714   0.2222222), wk =   0.0126984
        k(   59) = (   0.4000000   0.4285714   0.3333333), wk =   0.0126984
        k(   60) = (   0.4000000   0.4285714   0.4444444), wk =   0.0126984
        k(   61) = (  -0.2000000   0.0000000   0.1111111), wk =   0.0063492
        k(   62) = (  -0.2000000   0.0000000   0.2222222), wk =   0.0063492
        k(   63) = (  -0.2000000   0.0000000   0.3333333), wk =   0.0063492
        k(   64) = (  -0.2000000   0.0000000   0.4444444), wk =   0.0063492
        k(   65) = (  -0.2000000  -0.1428571   0.1111111), wk =   0.0126984
        k(   66) = (  -0.2000000  -0.1428571   0.2222222), wk =   0.0126984
        k(   67) = (  -0.2000000  -0.1428571   0.3333333), wk =   0.0126984
        k(   68) = (  -0.2000000  -0.1428571   0.4444444), wk =   0.0126984
        k(   69) = (  -0.2000000  -0.2857143   0.1111111), wk =   0.0126984
        k(   70) = (  -0.2000000  -0.2857143   0.2222222), wk =   0.0126984
        k(   71) = (  -0.2000000  -0.2857143   0.3333333), wk =   0.0126984
        k(   72) = (  -0.2000000  -0.2857143   0.4444444), wk =   0.0126984
        k(   73) = (  -0.2000000  -0.4285714   0.1111111), wk =   0.0126984
        k(   74) = (  -0.2000000  -0.4285714   0.2222222), wk =   0.0126984
        k(   75) = (  -0.2000000  -0.4285714   0.3333333), wk =   0.0126984
        k(   76) = (  -0.2000000  -0.4285714   0.4444444), wk =   0.0126984
        k(   77) = (  -0.4000000   0.0000000   0.1111111), wk =   0.0063492
        k(   78) = (  -0.4000000   0.0000000   0.2222222), wk =   0.0063492
        k(   79) = (  -0.4000000   0.0000000   0.3333333), wk =   0.0063492
        k(   80) = (  -0.4000000   0.0000000   0.4444444), wk =   0.0063492
        k(   81) = (  -0.4000000  -0.1428571   0.1111111), wk =   0.0126984
        k(   82) = (  -0.4000000  -0.1428571   0.2222222), wk =   0.0126984
        k(   83) = (  -0.4000000  -0.1428571   0.3333333), wk =   0.0126984
        k(   84) = (  -0.4000000  -0.1428571   0.4444444), wk =   0.0126984
        k(   85) = (  -0.4000000  -0.2857143   0.1111111), wk =   0.0126984
        k(   86) = (  -0.4000000  -0.2857143   0.2222222), wk =   0.0126984
        k(   87) = (  -0.4000000  -0.2857143   0.3333333), wk =   0.0126984
        k(   88) = (  -0.4000000  -0.2857143   0.4444444), wk =   0.0126984
        k(   89) = (  -0.4000000  -0.4285714   0.1111111), wk =   0.0126984
        k(   90) = (  -0.4000000  -0.4285714   0.2222222), wk =   0.0126984
        k(   91) = (  -0.4000000  -0.4285714   0.3333333), wk =   0.0126984
        k(   92) = (  -0.4000000  -0.4285714   0.4444444), wk =   0.0126984

     Dense  grid:  1338317 G-vectors     FFT dimensions: ( 216, 128, 100)

     Smooth grid:   301689 G-vectors     FFT dimensions: ( 128,  80,  60)

     Dynamical RAM for                 wfc:       6.23 MB

     Dynamical RAM for     wfc (w. buffer):    1153.03 MB

     Dynamical RAM for           str. fact:       6.81 MB

     Dynamical RAM for           local pot:       0.00 MB

     Dynamical RAM for          nlocal pot:      14.57 MB

     Dynamical RAM for                qrad:      10.54 MB

     Dynamical RAM for          rho,v,vnew:      21.60 MB

     Dynamical RAM for               rhoin:       7.20 MB

     Dynamical RAM for            rho*nmix:      54.46 MB

     Dynamical RAM for           G-vectors:       6.57 MB

     Dynamical RAM for          h,s,v(r/c):       3.09 MB

     Dynamical RAM for          <psi|beta>:       0.60 MB

     Dynamical RAM for                 psi:      12.47 MB

     Dynamical RAM for                hpsi:      12.47 MB

     Dynamical RAM for                spsi:      12.47 MB

     Dynamical RAM for      wfcinit/wfcrot:      15.10 MB

     Dynamical RAM for           addusdens:     345.46 MB

     Dynamical RAM for          addusforce:     396.64 MB

     Dynamical RAM for         addusstress:     344.61 MB

     Estimated static dynamical RAM per process >       1.26 GB

     Estimated max dynamical RAM per process >       1.65 GB

     Estimated total dynamical RAM >      19.82 GB

     Check: negative core charge=   -0.000003
     Generating pointlists ...
     new r_m :   0.0821 (alat units)  1.6414 (a.u.) for type    1
     new r_m :   0.0908 (alat units)  1.8147 (a.u.) for type    2
     new r_m :   0.0598 (alat units)  1.1956 (a.u.) for type    3
     new r_m :   0.0598 (alat units)  1.1956 (a.u.) for type    4

     Initial potential from superposition of free atoms

     starting charge  215.97252, renormalised to  216.00000
     Starting wfcs are  152 randomized atomic wfcs
     Checking if some PAW data can be deallocated... 
       PAW data deallocated on   10 nodes for type:  1
       PAW data deallocated on    4 nodes for type:  3

     total cpu time spent up to now is     1650.3 secs

     Self-consistent Calculation

     iteration #  1     ecut=   100.00 Ry     beta= 0.40
     Davidson diagonalization with overlap
     ethr =  1.00E-02,  avg # of iterations =  3.2

     negative rho (up, down):  0.000E+00 4.334E-05

     total cpu time spent up to now is     6351.2 secs

     total energy              =   -2380.65218008 Ry
     estimated scf accuracy    <       5.73590647 Ry

     total magnetization       =    16.00 Bohr mag/cell
     absolute magnetization    =    16.01 Bohr mag/cell

     iteration #  2     ecut=   100.00 Ry     beta= 0.40
     Davidson diagonalization with overlap
     ethr =  2.66E-03,  avg # of iterations =  2.0

     negative rho (up, down):  0.000E+00 1.562E-04

     total cpu time spent up to now is    10789.9 secs

     total energy              =   -2382.02332309 Ry
     estimated scf accuracy    <       0.57264379 Ry

     total magnetization       =    16.00 Bohr mag/cell
     absolute magnetization    =    16.01 Bohr mag/cell

     iteration #  3     ecut=   100.00 Ry     beta= 0.40
     Davidson diagonalization with overlap
     ethr =  2.65E-04,  avg # of iterations =  8.9

     negative rho (up, down):  0.000E+00 1.818E-04

     total cpu time spent up to now is    15820.7 secs

     total energy              =   -2382.06715891 Ry
     estimated scf accuracy    <       3.66994435 Ry

     total magnetization       =    16.12 Bohr mag/cell
     absolute magnetization    =    16.16 Bohr mag/cell

     iteration #  4     ecut=   100.00 Ry     beta= 0.40
     Davidson diagonalization with overlap
     ethr =  2.65E-04,  avg # of iterations =  2.0

     negative rho (up, down):  0.000E+00 3.282E-04

     total cpu time spent up to now is    19705.5 secs

     total energy              =   -2382.10519270 Ry
     estimated scf accuracy    <       1.16912628 Ry

     total magnetization       =    16.00 Bohr mag/cell
     absolute magnetization    =    16.06 Bohr mag/cell

     iteration #  5     ecut=   100.00 Ry     beta= 0.40
     Davidson diagonalization with overlap
     ethr =  2.65E-04,  avg # of iterations =  1.5

     negative rho (up, down):  0.000E+00 4.928E-04

     total cpu time spent up to now is    23369.1 secs

     total energy              =   -2382.04162148 Ry
     estimated scf accuracy    <       2.33106012 Ry

     total magnetization       =    16.00 Bohr mag/cell
     absolute magnetization    =    16.06 Bohr mag/cell

     iteration #  6     ecut=   100.00 Ry     beta= 0.40
     Davidson diagonalization with overlap
     ethr =  2.65E-04,  avg # of iterations =  2.0

     negative rho (up, down):  0.000E+00 5.033E-04

     total cpu time spent up to now is    27114.1 secs

     total energy              =   -2382.19137203 Ry
     estimated scf accuracy    <       2.64577669 Ry

     total magnetization       =    16.00 Bohr mag/cell
     absolute magnetization    =    16.07 Bohr mag/cell

     iteration #  7     ecut=   100.00 Ry     beta= 0.40
     Davidson diagonalization with overlap
     ethr =  2.65E-04,  avg # of iterations =  1.0

     negative rho (up, down):  0.000E+00 5.150E-04

     total cpu time spent up to now is    30655.6 secs

     total energy              =   -2382.19773784 Ry
     estimated scf accuracy    <       0.28910299 Ry

     total magnetization       =    16.00 Bohr mag/cell
     absolute magnetization    =    16.07 Bohr mag/cell

     iteration #  8     ecut=   100.00 Ry     beta= 0.40
     Davidson diagonalization with overlap
     ethr =  1.34E-04,  avg # of iterations =  1.0

     negative rho (up, down):  0.000E+00 5.146E-04

     total cpu time spent up to now is    34193.2 secs

     total energy              =   -2382.21546707 Ry
     estimated scf accuracy    <       0.24943705 Ry

     total magnetization       =    16.00 Bohr mag/cell
     absolute magnetization    =    16.08 Bohr mag/cell

     iteration #  9     ecut=   100.00 Ry     beta= 0.40
     Davidson diagonalization with overlap
     ethr =  1.15E-04,  avg # of iterations =  1.0

     negative rho (up, down):  0.000E+00 5.110E-04

     total cpu time spent up to now is    37724.8 secs

     total energy              =   -2382.21483335 Ry
     estimated scf accuracy    <       0.22578502 Ry

     total magnetization       =    16.00 Bohr mag/cell
     absolute magnetization    =    16.08 Bohr mag/cell

     iteration # 10     ecut=   100.00 Ry     beta= 0.40
     Davidson diagonalization with overlap
     ethr =  1.05E-04,  avg # of iterations =  1.0

     negative rho (up, down):  0.000E+00 5.079E-04

     total cpu time spent up to now is    41242.3 secs

     total energy              =   -2382.21467947 Ry
     estimated scf accuracy    <       0.13806977 Ry

     total magnetization       =    16.00 Bohr mag/cell
     absolute magnetization    =    16.08 Bohr mag/cell

     iteration # 11     ecut=   100.00 Ry     beta= 0.40
     Davidson diagonalization with overlap
     ethr =  6.39E-05,  avg # of iterations =  1.4

     negative rho (up, down):  0.000E+00 5.276E-04

     total cpu time spent up to now is    44827.8 secs

     total energy              =   -2382.20251052 Ry
     estimated scf accuracy    <       0.83105548 Ry

     total magnetization       =    16.00 Bohr mag/cell
     absolute magnetization    =    16.08 Bohr mag/cell

     iteration # 12     ecut=   100.00 Ry     beta= 0.40
     Davidson diagonalization with overlap
     ethr =  6.39E-05,  avg # of iterations =  1.0

     negative rho (up, down):  0.000E+00 5.130E-04

     total cpu time spent up to now is    48372.7 secs

     total energy              =   -2382.20636131 Ry
     estimated scf accuracy    <       0.14813836 Ry

     total magnetization       =    16.00 Bohr mag/cell
     absolute magnetization    =    16.08 Bohr mag/cell

     iteration # 13     ecut=   100.00 Ry     beta= 0.40
     Davidson diagonalization with overlap
     ethr =  6.39E-05,  avg # of iterations =  1.0

     negative rho (up, down):  0.000E+00 5.118E-04

     total cpu time spent up to now is    51905.3 secs

     total energy              =   -2382.21927479 Ry
     estimated scf accuracy    <       0.16485804 Ry

     total magnetization       =    16.00 Bohr mag/cell
     absolute magnetization    =    16.08 Bohr mag/cell

     iteration # 14     ecut=   100.00 Ry     beta= 0.40
     Davidson diagonalization with overlap
     ethr =  6.39E-05,  avg # of iterations =  1.0

     negative rho (up, down):  0.000E+00 5.069E-04

     total cpu time spent up to now is    55447.7 secs

     total energy              =   -2382.22334398 Ry
     estimated scf accuracy    <       0.11727451 Ry

     total magnetization       =    16.00 Bohr mag/cell
     absolute magnetization    =    16.08 Bohr mag/cell

     iteration # 15     ecut=   100.00 Ry     beta= 0.40
     Davidson diagonalization with overlap
     ethr =  5.43E-05,  avg # of iterations =  1.0

     negative rho (up, down):  0.000E+00 4.990E-04

     total cpu time spent up to now is    58973.8 secs

     total energy              =   -2382.22766835 Ry
     estimated scf accuracy    <       0.09051198 Ry

     total magnetization       =    16.00 Bohr mag/cell
     absolute magnetization    =    16.08 Bohr mag/cell

     iteration # 16     ecut=   100.00 Ry     beta= 0.40
     Davidson diagonalization with overlap
     ethr =  4.19E-05,  avg # of iterations =  1.0

     negative rho (up, down):  0.000E+00 4.959E-04

     total cpu time spent up to now is    62455.7 secs

     total energy              =   -2382.22812298 Ry
     estimated scf accuracy    <       0.04731979 Ry

     total magnetization       =    16.00 Bohr mag/cell
     absolute magnetization    =    16.08 Bohr mag/cell

     iteration # 17     ecut=   100.00 Ry     beta= 0.40
     Davidson diagonalization with overlap
     ethr =  2.19E-05,  avg # of iterations =  1.6

     negative rho (up, down):  0.000E+00 4.834E-04

     total cpu time spent up to now is    66037.6 secs

     total energy              =   -2382.22854302 Ry
     estimated scf accuracy    <       0.04252399 Ry

     total magnetization       =    16.00 Bohr mag/cell
     absolute magnetization    =    16.08 Bohr mag/cell

     iteration # 18     ecut=   100.00 Ry     beta= 0.40
     Davidson diagonalization with overlap
     ethr =  1.97E-05,  avg # of iterations =  1.6

     negative rho (up, down):  0.000E+00 4.762E-04

     total cpu time spent up to now is    69605.2 secs

     total energy              =   -2382.22987448 Ry
     estimated scf accuracy    <       0.02772043 Ry

     total magnetization       =    16.00 Bohr mag/cell
     absolute magnetization    =    16.08 Bohr mag/cell

     iteration # 19     ecut=   100.00 Ry     beta= 0.40
     Davidson diagonalization with overlap
     c_bands:  1 eigenvalues not converged
     ethr =  1.28E-05,  avg # of iterations =  2.3

     negative rho (up, down):  0.000E+00 4.931E-04

     total cpu time spent up to now is    73276.8 secs

     total energy              =   -2382.22995440 Ry
     estimated scf accuracy    <       0.02012598 Ry

     total magnetization       =    16.00 Bohr mag/cell
     absolute magnetization    =    16.08 Bohr mag/cell

     iteration # 20     ecut=   100.00 Ry     beta= 0.40
     Davidson diagonalization with overlap
     ethr =  9.32E-06,  avg # of iterations =  2.4

     negative rho (up, down):  0.000E+00 5.132E-04

     total cpu time spent up to now is    76952.4 secs

     total energy              =   -2382.22902001 Ry
     estimated scf accuracy    <       0.01938334 Ry

     total magnetization       =    16.00 Bohr mag/cell
     absolute magnetization    =    16.08 Bohr mag/cell

     iteration # 21     ecut=   100.00 Ry     beta= 0.40
     Davidson diagonalization with overlap
     ethr =  8.97E-06,  avg # of iterations =  1.4

     negative rho (up, down):  0.000E+00 5.135E-04

     total cpu time spent up to now is    80551.4 secs

     total energy              =   -2382.22927422 Ry
     estimated scf accuracy    <       0.02236848 Ry

     total magnetization       =    16.00 Bohr mag/cell
     absolute magnetization    =    16.08 Bohr mag/cell

     iteration # 22     ecut=   100.00 Ry     beta= 0.40
     Davidson diagonalization with overlap
     ethr =  8.97E-06,  avg # of iterations =  1.0

     negative rho (up, down):  0.000E+00 5.036E-04

     total cpu time spent up to now is    84073.7 secs

     total energy              =   -2382.22874041 Ry
     estimated scf accuracy    <       0.01739467 Ry

     total magnetization       =    16.00 Bohr mag/cell
     absolute magnetization    =    16.08 Bohr mag/cell

     iteration # 23     ecut=   100.00 Ry     beta= 0.40
     Davidson diagonalization with overlap
     ethr =  8.05E-06,  avg # of iterations =  1.9

     negative rho (up, down):  0.000E+00 5.070E-04

     total cpu time spent up to now is    87676.8 secs

     total energy              =   -2382.22938801 Ry
     estimated scf accuracy    <       0.00155302 Ry

     total magnetization       =    16.00 Bohr mag/cell
     absolute magnetization    =    16.08 Bohr mag/cell

     iteration # 24     ecut=   100.00 Ry     beta= 0.40
     Davidson diagonalization with overlap
     c_bands:  1 eigenvalues not converged
     c_bands:  1 eigenvalues not converged
     c_bands:  1 eigenvalues not converged
     c_bands:  1 eigenvalues not converged
     c_bands:  1 eigenvalues not converged
     c_bands:  1 eigenvalues not converged
     c_bands:  2 eigenvalues not converged
     c_bands:  1 eigenvalues not converged
     c_bands:  1 eigenvalues not converged
     ethr =  7.19E-07,  avg # of iterations =  8.9

     negative rho (up, down):  0.000E+00 5.078E-04

     total cpu time spent up to now is    91979.4 secs

     total energy              =   -2382.22941952 Ry
     estimated scf accuracy    <       0.00019086 Ry

     total magnetization       =    16.00 Bohr mag/cell
     absolute magnetization    =    16.08 Bohr mag/cell

     iteration # 25     ecut=   100.00 Ry     beta= 0.40
     Davidson diagonalization with overlap
     ethr =  8.84E-08,  avg # of iterations =  2.8

     negative rho (up, down):  0.000E+00 5.082E-04

     total cpu time spent up to now is    95803.1 secs

     total energy              =   -2382.22944745 Ry
     estimated scf accuracy    <       0.00006852 Ry

     total magnetization       =    16.00 Bohr mag/cell
     absolute magnetization    =    16.08 Bohr mag/cell

     iteration # 26     ecut=   100.00 Ry     beta= 0.40
     Davidson diagonalization with overlap
     ethr =  3.17E-08,  avg # of iterations =  2.4

     negative rho (up, down):  0.000E+00 5.078E-04

     total cpu time spent up to now is    99651.9 secs

     total energy              =   -2382.22946506 Ry
     estimated scf accuracy    <       0.00003993 Ry

     total magnetization       =    16.00 Bohr mag/cell
     absolute magnetization    =    16.08 Bohr mag/cell

     iteration # 27     ecut=   100.00 Ry     beta= 0.40
     Davidson diagonalization with overlap
     ethr =  1.85E-08,  avg # of iterations =  1.8

     negative rho (up, down):  0.000E+00 5.093E-04

     total cpu time spent up to now is   103288.0 secs

     total energy              =   -2382.22948098 Ry
     estimated scf accuracy    <       0.00013395 Ry

     total magnetization       =    16.00 Bohr mag/cell
     absolute magnetization    =    16.08 Bohr mag/cell

     iteration # 28     ecut=   100.00 Ry     beta= 0.40
     Davidson diagonalization with overlap
     ethr =  1.85E-08,  avg # of iterations =  2.0

     negative rho (up, down):  0.000E+00 5.055E-04

     total cpu time spent up to now is   106975.6 secs

     total energy              =   -2382.22944515 Ry
     estimated scf accuracy    <       0.00216679 Ry

     total magnetization       =    16.00 Bohr mag/cell
     absolute magnetization    =    16.08 Bohr mag/cell

     iteration # 29     ecut=   100.00 Ry     beta= 0.40
     Davidson diagonalization with overlap
     ethr =  1.85E-08,  avg # of iterations =  2.2

     negative rho (up, down):  0.000E+00 5.030E-04

     total cpu time spent up to now is   111116.2 secs

     total energy              =   -2382.22947427 Ry
     estimated scf accuracy    <       0.00040186 Ry

     total magnetization       =    16.00 Bohr mag/cell
     absolute magnetization    =    16.08 Bohr mag/cell

     iteration # 30     ecut=   100.00 Ry     beta= 0.40
     Davidson diagonalization with overlap
     ethr =  1.85E-08,  avg # of iterations =  2.3

     negative rho (up, down):  0.000E+00 5.026E-04

     total cpu time spent up to now is   115108.8 secs

     total energy              =   -2382.22953123 Ry
     estimated scf accuracy    <       0.00004186 Ry

     total magnetization       =    16.00 Bohr mag/cell
     absolute magnetization    =    16.08 Bohr mag/cell

     iteration # 31     ecut=   100.00 Ry     beta= 0.40
     Davidson diagonalization with overlap
     ethr =  1.85E-08,  avg # of iterations =  2.0

     negative rho (up, down):  0.000E+00 5.011E-04

     total cpu time spent up to now is   118856.5 secs

     total energy              =   -2382.22950691 Ry
     estimated scf accuracy    <       0.00000523 Ry

     total magnetization       =    16.00 Bohr mag/cell
     absolute magnetization    =    16.08 Bohr mag/cell

     iteration # 32     ecut=   100.00 Ry     beta= 0.40
     Davidson diagonalization with overlap
     ethr =  2.42E-09,  avg # of iterations =  4.6

     negative rho (up, down):  0.000E+00 5.011E-04

     total cpu time spent up to now is   123779.0 secs

     total energy              =   -2382.22955332 Ry
     estimated scf accuracy    <       0.00000303 Ry

     total magnetization       =    16.00 Bohr mag/cell
     absolute magnetization    =    16.08 Bohr mag/cell

     iteration # 33     ecut=   100.00 Ry     beta= 0.40
     Davidson diagonalization with overlap
     ethr =  1.40E-09,  avg # of iterations =  2.0

     negative rho (up, down):  0.000E+00 5.011E-04

     total cpu time spent up to now is   127586.4 secs

     total energy              =   -2382.22955649 Ry
     estimated scf accuracy    <       0.00000587 Ry

     total magnetization       =    16.00 Bohr mag/cell
     absolute magnetization    =    16.08 Bohr mag/cell

     iteration # 34     ecut=   100.00 Ry     beta= 0.40
     Davidson diagonalization with overlap
     ethr =  1.40E-09,  avg # of iterations =  2.0

     negative rho (up, down):  0.000E+00 5.011E-04

     total cpu time spent up to now is   131370.8 secs

     total energy              =   -2382.22955968 Ry
     estimated scf accuracy    <       0.00000027 Ry

     total magnetization       =    16.00 Bohr mag/cell
     absolute magnetization    =    16.08 Bohr mag/cell

     iteration # 35     ecut=   100.00 Ry     beta= 0.40
     Davidson diagonalization with overlap
     ethr =  1.24E-10,  avg # of iterations =  4.4

     negative rho (up, down):  0.000E+00 5.009E-04

     total cpu time spent up to now is   135666.6 secs

     total energy              =   -2382.22956056 Ry
     estimated scf accuracy    <       0.00000014 Ry

     total magnetization       =    16.00 Bohr mag/cell
     absolute magnetization    =    16.08 Bohr mag/cell

     iteration # 36     ecut=   100.00 Ry     beta= 0.40
     Davidson diagonalization with overlap
     ethr =  6.55E-11,  avg # of iterations =  2.0

     negative rho (up, down):  0.000E+00 5.007E-04

     total cpu time spent up to now is   139591.3 secs

     total energy              =   -2382.22956088 Ry
     estimated scf accuracy    <       0.00000018 Ry

     total magnetization       =    16.00 Bohr mag/cell
     absolute magnetization    =    16.08 Bohr mag/cell

     iteration # 37     ecut=   100.00 Ry     beta= 0.40
     Davidson diagonalization with overlap
     ethr =  6.55E-11,  avg # of iterations =  2.0

     negative rho (up, down):  0.000E+00 5.004E-04

     total cpu time spent up to now is   143578.5 secs

     total energy              =   -2382.22956097 Ry
     estimated scf accuracy    <       0.00000012 Ry

     total magnetization       =    16.00 Bohr mag/cell
     absolute magnetization    =    16.08 Bohr mag/cell

     iteration # 38     ecut=   100.00 Ry     beta= 0.40
     Davidson diagonalization with overlap
     ethr =  5.38E-11,  avg # of iterations =  3.2

     negative rho (up, down):  0.000E+00 5.002E-04

     total cpu time spent up to now is   148043.9 secs

     total energy              =   -2382.22956083 Ry
     estimated scf accuracy    <       0.00000008 Ry

     total magnetization       =    16.00 Bohr mag/cell
     absolute magnetization    =    16.08 Bohr mag/cell

     iteration # 39     ecut=   100.00 Ry     beta= 0.40
     Davidson diagonalization with overlap
     ethr =  3.48E-11,  avg # of iterations =  4.0

     negative rho (up, down):  0.000E+00 5.000E-04

     total cpu time spent up to now is   152861.3 secs

     total energy              =   -2382.22956115 Ry
     estimated scf accuracy    <       0.00000003 Ry

     total magnetization       =    16.00 Bohr mag/cell
     absolute magnetization    =    16.08 Bohr mag/cell

     iteration # 40     ecut=   100.00 Ry     beta= 0.40
     Davidson diagonalization with overlap
     ethr =  1.58E-11,  avg # of iterations =  4.0

     negative rho (up, down):  0.000E+00 4.999E-04

     total cpu time spent up to now is   157834.7 secs

     total energy              =   -2382.22956151 Ry
     estimated scf accuracy    <       0.00000003 Ry

     total magnetization       =    16.00 Bohr mag/cell
     absolute magnetization    =    16.08 Bohr mag/cell

     iteration # 41     ecut=   100.00 Ry     beta= 0.40
     Davidson diagonalization with overlap
     ethr =  1.58E-11,  avg # of iterations =  2.5

     negative rho (up, down):  0.000E+00 4.998E-04

     total cpu time spent up to now is   162298.9 secs

     total energy              =   -2382.22956157 Ry
     estimated scf accuracy    <          3.9E-09 Ry

     total magnetization       =    16.00 Bohr mag/cell
     absolute magnetization    =    16.08 Bohr mag/cell

     iteration # 42     ecut=   100.00 Ry     beta= 0.40
     Davidson diagonalization with overlap
     ethr =  1.81E-12,  avg # of iterations =  5.1

     negative rho (up, down):  0.000E+00 4.998E-04

     total cpu time spent up to now is   167679.7 secs

     total energy              =   -2382.22956168 Ry
     estimated scf accuracy    <       0.00000002 Ry

     total magnetization       =    16.00 Bohr mag/cell
     absolute magnetization    =    16.08 Bohr mag/cell

     iteration # 43     ecut=   100.00 Ry     beta= 0.40
     Davidson diagonalization with overlap
     ethr =  1.81E-12,  avg # of iterations =  2.0

     negative rho (up, down):  0.000E+00 4.998E-04

     total cpu time spent up to now is   171723.1 secs

     total energy              =   -2382.22956169 Ry
     estimated scf accuracy    <          1.8E-09 Ry

     total magnetization       =    16.00 Bohr mag/cell
     absolute magnetization    =    16.08 Bohr mag/cell

     iteration # 44     ecut=   100.00 Ry     beta= 0.40
     Davidson diagonalization with overlap
     ethr =  8.25E-13,  avg # of iterations =  2.5

     negative rho (up, down):  0.000E+00 4.998E-04

     Magnetic moment per site:
     atom:    1    charge:    7.9687    magn:    0.0001    constr:    0.0000
     atom:    2    charge:    7.9687    magn:    0.0001    constr:    0.0000
     atom:    3    charge:    7.9687    magn:    0.0001    constr:    0.0000
     atom:    4    charge:    7.9687    magn:    0.0001    constr:    0.0000
     atom:    5    charge:   13.4080    magn:    3.3822    constr:    0.0000
     atom:    6    charge:   13.4080    magn:    3.3822    constr:    0.0000
     atom:    7    charge:   13.4080    magn:    3.3822    constr:    0.0000
     atom:    8    charge:   13.4080    magn:    3.3822    constr:    0.0000
     atom:    9    charge:    0.8515    magn:    0.0059    constr:    0.0000
     atom:   10    charge:    0.8515    magn:    0.0059    constr:    0.0000
     atom:   11    charge:    0.8515    magn:    0.0059    constr:    0.0000
     atom:   12    charge:    0.8515    magn:    0.0059    constr:    0.0000
     atom:   13    charge:    4.2601    magn:    0.0296    constr:    0.0000
     atom:   14    charge:    4.2602    magn:    0.0296    constr:    0.0000
     atom:   15    charge:    4.2602    magn:    0.0296    constr:    0.0000
     atom:   16    charge:    4.2602    magn:    0.0296    constr:    0.0000
     atom:   17    charge:    4.2491    magn:    0.0416    constr:    0.0000
     atom:   18    charge:    4.2491    magn:    0.0416    constr:    0.0000
     atom:   19    charge:    4.2491    magn:    0.0416    constr:    0.0000
     atom:   20    charge:    4.2492    magn:    0.0416    constr:    0.0000
     atom:   21    charge:    4.2415    magn:    0.0709    constr:    0.0000
     atom:   22    charge:    4.2415    magn:    0.0709    constr:    0.0000
     atom:   23    charge:    4.2415    magn:    0.0709    constr:    0.0000
     atom:   24    charge:    4.2415    magn:    0.0709    constr:    0.0000
     atom:   25    charge:    4.2415    magn:    0.0709    constr:    0.0000
     atom:   26    charge:    4.2415    magn:    0.0709    constr:    0.0000
     atom:   27    charge:    4.2415    magn:    0.0709    constr:    0.0000
     atom:   28    charge:    4.2415    magn:    0.0709    constr:    0.0000

     total cpu time spent up to now is   175761.6 secs

     End of self-consistent calculation

 ------ SPIN UP ------------


          k = 0.0000 0.0000 0.0000 ( 37649 PWs)   bands (ev):

   -81.5532 -81.5527 -81.5516 -81.5511 -48.4353 -48.4344 -48.4336 -48.4328
   -47.5477 -47.5474 -47.5463 -47.5456 -46.8255 -46.8248 -46.8238 -46.8232
   -43.3416 -43.3415 -43.3348 -43.3348 -15.5536 -15.5421 -15.3908 -15.3863
   -15.3490 -15.3470 -15.3357 -15.3331 -15.2883 -15.2882 -15.2670 -15.2668
   -14.8611 -14.6991 -14.4957 -14.3907 -12.2832 -12.2605 -12.2225 -12.2165
   -12.2127 -12.1627 -12.0517 -12.0399 -12.0022 -11.9818 -11.9618 -11.9360
    -2.3630  -1.9793  -1.7887  -1.7796  -0.6499  -0.2817  -0.2076  -0.0975
     0.1174   0.1864   0.4610   0.4997   0.5049   0.5346   0.5969   0.8784
     1.7437   1.9059   2.1621   2.2302   2.4146   2.5283   2.5416   2.5774
     2.6589   2.7368   2.8041   3.0041   3.1013   3.1522   3.1743   3.3196
     3.3783   3.3833   3.4195   3.4491   3.5374   3.6207   3.8558   3.8672
     3.8764   3.9581   4.0712   4.3342   4.4236   4.4636   4.8093   4.8157
     4.9220   5.0291   5.1467   5.2860   5.2912   5.3590   5.4193   5.4450
     5.5265   5.7340   5.9150   6.0309   6.1500   6.2016   6.2117   6.4743
     6.4983   6.5391   6.6012   6.6614   9.7905  11.7397  12.0797  12.4708
    12.8836  13.5357  13.8170  14.3621  14.6452  14.7104  14.8110  14.8297
    14.8868  14.9156

     occupation numbers 
     1.0000   1.0000   1.0000   1.0000   1.0000   1.0000   1.0000   1.0000
     1.0000   1.0000   1.0000   1.0000   1.0000   1.0000   1.0000   1.0000
     1.0000   1.0000   1.0000   1.0000   1.0000   1.0000   1.0000   1.0000
     1.0000   1.0000   1.0000   1.0000   1.0000   1.0000   1.0000   1.0000
     1.0000   1.0000   1.0000   1.0000   1.0000   1.0000   1.0000   1.0000
     1.0000   1.0000   1.0000   1.0000   1.0000   1.0000   1.0000   1.0000
     1.0000   1.0000   1.0000   1.0000   1.0000   1.0000   1.0000   1.0000
     1.0000   1.0000   1.0000   1.0000   1.0000   1.0000   1.0000   1.0000
     1.0000   1.0000   1.0000   1.0000   1.0000   1.0000   1.0000   1.0000
     1.0000   1.0000   1.0000   1.0000   1.0000   1.0000   1.0000   1.0000
     1.0000   1.0000   1.0000   1.0000   1.0000   1.0000   1.0000   1.0000
     1.0000   1.0000   1.0000   1.0000   1.0000   1.0000   1.0000   1.0000
     1.0000   1.0000   1.0000   1.0000   1.0000   1.0000   1.0000   1.0000
     1.0000   1.0000   1.0000   1.0000   1.0000   1.0000   1.0000   1.0000
     1.0000   1.0000   1.0000   1.0000   0.0000   0.0000   0.0000   0.0000
     0.0000   0.0000   0.0000   0.0000   0.0000   0.0000   0.0000   0.0000
     0.0000   0.0000

          k = 0.0000 0.0000 0.2376 ( 37659 PWs)   bands (ev):

   -81.5532 -81.5527 -81.5516 -81.5511 -48.4352 -48.4344 -48.4336 -48.4329
   -47.5477 -47.5474 -47.5463 -47.5456 -46.8255 -46.8248 -46.8238 -46.8232
   -43.3416 -43.3415 -43.3348 -43.3348 -15.5466 -15.5359 -15.3969 -15.3929
   -15.3490 -15.3472 -15.3459 -15.3398 -15.2884 -15.2883 -15.2671 -15.2669
   -14.8249 -14.6745 -14.5017 -14.4029 -12.2955 -12.2712 -12.2487 -12.2125
   -12.2097 -12.1589 -12.0547 -12.0499 -12.0083 -11.9714 -11.9699 -11.9305
    -2.3443  -1.9801  -1.8089  -1.7601  -0.5856  -0.2569  -0.1447  -0.0386
     0.1166   0.2047   0.4763   0.4995   0.5009   0.5284   0.5687   0.8589
     1.7403   1.8942   2.1673   2.1853   2.4205   2.4459   2.5197   2.5548
     2.6005   2.7595   2.7849   2.9593   3.0723   3.1068   3.1844   3.2735
     3.2917   3.3809   3.5265   3.5481   3.6028   3.6203   3.7984   3.8410
     3.8583   3.9978   4.1267   4.3508   4.4511   4.4654   4.7941   4.8086
     4.9113   5.0306   5.1103   5.2938   5.2982   5.3264   5.3695   5.4349
     5.5656   5.7521   5.9459   6.0700   6.1534   6.2188   6.2300   6.4403
     6.4749   6.5192   6.6107   6.6528   9.9423  11.7879  12.1544  12.4762
    12.9343  13.4043  14.0064  14.0809  14.4023  14.6349  14.6696  14.6921
    14.9803  15.0027

     occupation numbers 
     1.0000   1.0000   1.0000   1.0000   1.0000   1.0000   1.0000   1.0000
     1.0000   1.0000   1.0000   1.0000   1.0000   1.0000   1.0000   1.0000
     1.0000   1.0000   1.0000   1.0000   1.0000   1.0000   1.0000   1.0000
     1.0000   1.0000   1.0000   1.0000   1.0000   1.0000   1.0000   1.0000
     1.0000   1.0000   1.0000   1.0000   1.0000   1.0000   1.0000   1.0000
     1.0000   1.0000   1.0000   1.0000   1.0000   1.0000   1.0000   1.0000
     1.0000   1.0000   1.0000   1.0000   1.0000   1.0000   1.0000   1.0000
     1.0000   1.0000   1.0000   1.0000   1.0000   1.0000   1.0000   1.0000
     1.0000   1.0000   1.0000   1.0000   1.0000   1.0000   1.0000   1.0000
     1.0000   1.0000   1.0000   1.0000   1.0000   1.0000   1.0000   1.0000
     1.0000   1.0000   1.0000   1.0000   1.0000   1.0000   1.0000   1.0000
     1.0000   1.0000   1.0000   1.0000   1.0000   1.0000   1.0000   1.0000
     1.0000   1.0000   1.0000   1.0000   1.0000   1.0000   1.0000   1.0000
     1.0000   1.0000   1.0000   1.0000   1.0000   1.0000   1.0000   1.0000
     1.0000   1.0000   1.0000   1.0000   0.0000   0.0000   0.0000   0.0000
     0.0000   0.0000   0.0000   0.0000   0.0000   0.0000   0.0000   0.0000
     0.0000   0.0000

          k = 0.0000 0.0000 0.4753 ( 37654 PWs)   bands (ev):

   -81.5532 -81.5527 -81.5516 -81.5511 -48.4352 -48.4345 -48.4335 -48.4329
   -47.5477 -47.5474 -47.5463 -47.5456 -46.8255 -46.8248 -46.8238 -46.8232
   -43.3416 -43.3415 -43.3348 -43.3348 -15.5318 -15.5229 -15.4167 -15.4127
   -15.3544 -15.3491 -15.3477 -15.3462 -15.2886 -15.2885 -15.2674 -15.2672
   -14.7393 -14.6179 -14.5163 -14.4350 -12.3346 -12.2939 -12.2904 -12.2391
   -12.1907 -12.1481 -12.0641 -12.0636 -12.0258 -11.9932 -11.9460 -11.9196
    -2.2890  -1.9757  -1.8396  -1.7573  -0.3947  -0.1791   0.0039   0.1126
     0.1202   0.2485   0.4788   0.4915   0.4963   0.5396   0.5536   0.8015
     1.7265   1.8656   2.0749   2.1823   2.3151   2.4212   2.4259   2.4576
     2.5229   2.6457   2.8389   2.9319   2.9762   3.0169   3.0496   3.2032
     3.2256   3.3405   3.5800   3.6368   3.7054   3.7369   3.7955   3.8219
     3.9120   4.0659   4.1469   4.4235   4.4643   4.5266   4.7759   4.7821
     4.8931   5.0356   5.0504   5.1802   5.2634   5.2998   5.3921   5.4060
     5.6633   5.8159   6.0022   6.1468   6.1639   6.2684   6.2688   6.3793
     6.4051   6.4592   6.6172   6.6304  10.3426  11.9240  12.2640  12.5745
    13.0842  13.2747  13.5855  14.0808  14.2583  14.2646  14.4234  14.6350
    14.8166  15.0038

     occupation numbers 
     1.0000   1.0000   1.0000   1.0000   1.0000   1.0000   1.0000   1.0000
     1.0000   1.0000   1.0000   1.0000   1.0000   1.0000   1.0000   1.0000
     1.0000   1.0000   1.0000   1.0000   1.0000   1.0000   1.0000   1.0000
     1.0000   1.0000   1.0000   1.0000   1.0000   1.0000   1.0000   1.0000
     1.0000   1.0000   1.0000   1.0000   1.0000   1.0000   1.0000   1.0000
     1.0000   1.0000   1.0000   1.0000   1.0000   1.0000   1.0000   1.0000
     1.0000   1.0000   1.0000   1.0000   1.0000   1.0000   1.0000   1.0000
     1.0000   1.0000   1.0000   1.0000   1.0000   1.0000   1.0000   1.0000
     1.0000   1.0000   1.0000   1.0000   1.0000   1.0000   1.0000   1.0000
     1.0000   1.0000   1.0000   1.0000   1.0000   1.0000   1.0000   1.0000
     1.0000   1.0000   1.0000   1.0000   1.0000   1.0000   1.0000   1.0000
     1.0000   1.0000   1.0000   1.0000   1.0000   1.0000   1.0000   1.0000
     1.0000   1.0000   1.0000   1.0000   1.0000   1.0000   1.0000   1.0000
     1.0000   1.0000   1.0000   1.0000   1.0000   1.0000   1.0000   1.0000
     1.0000   1.0000   1.0000   1.0000   0.0000   0.0000   0.0000   0.0000
     0.0000   0.0000   0.0000   0.0000   0.0000   0.0000   0.0000   0.0000
     0.0000   0.0000

          k = 0.0000 0.0000 0.7129 ( 37702 PWs)   bands (ev):

   -81.5532 -81.5527 -81.5516 -81.5511 -48.4351 -48.4345 -48.4335 -48.4330
   -47.5477 -47.5474 -47.5462 -47.5456 -46.8254 -46.8248 -46.8238 -46.8232
   -43.3416 -43.3415 -43.3348 -43.3348 -15.5247 -15.5176 -15.4306 -15.4285
   -15.3511 -15.3490 -15.3483 -15.3448 -15.2888 -15.2887 -15.2676 -15.2674
   -14.6464 -14.5679 -14.5278 -14.4724 -12.3813 -12.3456 -12.3078 -12.2807
   -12.1620 -12.1315 -12.0782 -12.0664 -12.0525 -12.0182 -11.9237 -11.9096
    -2.2009  -1.9551  -1.8927  -1.7950  -0.1152  -0.0526   0.1162   0.1426
     0.2844   0.2991   0.3864   0.4319   0.5077   0.6785   0.6819   0.7153
     1.6907   1.8453   1.9274   2.1422   2.2098   2.2895   2.3722   2.4052
     2.4693   2.5191   2.5624   2.8235   2.9500   3.0289   3.0335   3.1506
     3.2317   3.2533   3.4818   3.5163   3.8061   3.8665   3.9132   3.9477
     3.9822   4.1458   4.2149   4.4209   4.4406   4.6075   4.7421   4.8325
     4.8938   5.0073   5.0457   5.0703   5.1649   5.2815   5.3830   5.4275
     5.8026   5.9314   6.0523   6.1754   6.2100   6.2570   6.2913   6.3360
     6.3603   6.3765   6.6047   6.6091  10.8784  12.1365  12.2116  12.7825
    13.1564  13.2069  13.3751  13.7834  13.7937  14.3140  14.3526  14.5388
    14.5753  14.9550

     occupation numbers 
     1.0000   1.0000   1.0000   1.0000   1.0000   1.0000   1.0000   1.0000
     1.0000   1.0000   1.0000   1.0000   1.0000   1.0000   1.0000   1.0000
     1.0000   1.0000   1.0000   1.0000   1.0000   1.0000   1.0000   1.0000
     1.0000   1.0000   1.0000   1.0000   1.0000   1.0000   1.0000   1.0000
     1.0000   1.0000   1.0000   1.0000   1.0000   1.0000   1.0000   1.0000
     1.0000   1.0000   1.0000   1.0000   1.0000   1.0000   1.0000   1.0000
     1.0000   1.0000   1.0000   1.0000   1.0000   1.0000   1.0000   1.0000
     1.0000   1.0000   1.0000   1.0000   1.0000   1.0000   1.0000   1.0000
     1.0000   1.0000   1.0000   1.0000   1.0000   1.0000   1.0000   1.0000
     1.0000   1.0000   1.0000   1.0000   1.0000   1.0000   1.0000   1.0000
     1.0000   1.0000   1.0000   1.0000   1.0000   1.0000   1.0000   1.0000
     1.0000   1.0000   1.0000   1.0000   1.0000   1.0000   1.0000   1.0000
     1.0000   1.0000   1.0000   1.0000   1.0000   1.0000   1.0000   1.0000
     1.0000   1.0000   1.0000   1.0000   1.0000   1.0000   1.0000   1.0000
     1.0000   1.0000   1.0000   1.0000   0.0000   0.0000   0.0000   0.0000
     0.0000   0.0000   0.0000   0.0000   0.0000   0.0000   0.0000   0.0000
     0.0000   0.0000

          k = 0.0000 0.0000 0.9505 ( 37742 PWs)   bands (ev):

   -81.5532 -81.5527 -81.5516 -81.5511 -48.4351 -48.4346 -48.4334 -48.4330
   -47.5477 -47.5474 -47.5462 -47.5456 -46.8254 -46.8249 -46.8238 -46.8232
   -43.3416 -43.3415 -43.3348 -43.3348 -15.5267 -15.5238 -15.4305 -15.4301
   -15.3491 -15.3488 -15.3440 -15.3418 -15.2889 -15.2888 -15.2677 -15.2676
   -14.5862 -14.5613 -14.5167 -14.4945 -12.4059 -12.3911 -12.3165 -12.3090
   -12.1284 -12.1107 -12.0985 -12.0840 -12.0574 -12.0406 -11.9095 -11.9052
    -2.0906  -1.9792  -1.9143  -1.8569   0.0481   0.1212   0.1710   0.1953
     0.2803   0.3002   0.3753   0.4396   0.5491   0.6228   0.8397   0.8446
     1.6611   1.7512   1.8628   1.9660   2.1731   2.2245   2.2614   2.3395
     2.3832   2.4309   2.5511   2.6624   2.9885   3.0159   3.0861   3.0996
     3.2486   3.2913   3.3569   3.3912   3.8689   3.9087   3.9342   3.9839
     4.1434   4.2637   4.3071   4.3738   4.3917   4.5521   4.7850   4.8532
     4.9255   4.9853   5.0636   5.0673   5.0989   5.1933   5.4005   5.4243
     5.9703   6.0780   6.1013   6.1411   6.1528   6.2284   6.2364   6.2366
     6.3909   6.4039   6.5895   6.5939  11.4433  11.9329  12.4096  12.6775
    13.1766  13.1865  13.4089  13.5171  13.8159  14.1699  14.3253  14.4205
    14.5253  14.7119

     occupation numbers 
     1.0000   1.0000   1.0000   1.0000   1.0000   1.0000   1.0000   1.0000
     1.0000   1.0000   1.0000   1.0000   1.0000   1.0000   1.0000   1.0000
     1.0000   1.0000   1.0000   1.0000   1.0000   1.0000   1.0000   1.0000
     1.0000   1.0000   1.0000   1.0000   1.0000   1.0000   1.0000   1.0000
     1.0000   1.0000   1.0000   1.0000   1.0000   1.0000   1.0000   1.0000
     1.0000   1.0000   1.0000   1.0000   1.0000   1.0000   1.0000   1.0000
     1.0000   1.0000   1.0000   1.0000   1.0000   1.0000   1.0000   1.0000
     1.0000   1.0000   1.0000   1.0000   1.0000   1.0000   1.0000   1.0000
     1.0000   1.0000   1.0000   1.0000   1.0000   1.0000   1.0000   1.0000
     1.0000   1.0000   1.0000   1.0000   1.0000   1.0000   1.0000   1.0000
     1.0000   1.0000   1.0000   1.0000   1.0000   1.0000   1.0000   1.0000
     1.0000   1.0000   1.0000   1.0000   1.0000   1.0000   1.0000   1.0000
     1.0000   1.0000   1.0000   1.0000   1.0000   1.0000   1.0000   1.0000
     1.0000   1.0000   1.0000   1.0000   1.0000   1.0000   1.0000   1.0000
     1.0000   1.0000   1.0000   1.0000   0.0000   0.0000   0.0000   0.0000
     0.0000   0.0000   0.0000   0.0000   0.0000   0.0000   0.0000   0.0000
     0.0000   0.0000

          k = 0.0000 0.2391 0.0000 ( 37676 PWs)   bands (ev):

   -81.5532 -81.5527 -81.5516 -81.5511 -48.4352 -48.4345 -48.4336 -48.4329
   -47.5477 -47.5474 -47.5463 -47.5456 -46.8255 -46.8248 -46.8238 -46.8232
   -43.3413 -43.3412 -43.3351 -43.3351 -15.5432 -15.5329 -15.3884 -15.3841
   -15.3524 -15.3504 -15.3325 -15.3301 -15.3061 -15.3037 -15.2712 -15.2711
   -14.8308 -14.6824 -14.5009 -14.4111 -12.2779 -12.2602 -12.2233 -12.2185
   -12.2066 -12.1799 -12.1106 -12.0163 -11.9843 -11.9782 -11.9488 -11.9369
    -2.3303  -1.9569  -1.8122  -1.7735  -0.6099  -0.2637  -0.1920  -0.1103
     0.1571   0.1886   0.4143   0.4515   0.5383   0.5813   0.6229   0.8525
     1.7567   1.9110   2.1396   2.2032   2.3054   2.4863   2.4873   2.6282
     2.6290   2.7268   2.9066   3.0179   3.0288   3.0718   3.1921   3.3684
     3.3692   3.3978   3.4218   3.4745   3.5988   3.6522   3.7401   3.8806
     3.9230   3.9734   4.0502   4.3094   4.3947   4.4716   4.7547   4.8465
     4.9061   4.9901   5.0724   5.1448   5.2919   5.4383   5.4728   5.5093
     5.5232   5.7062   6.0218   6.0615   6.1459   6.1797   6.2039   6.3303
     6.3546   6.6373   6.6935   6.6965   9.9538  11.8288  12.1830  12.4371
    12.9465  13.6134  13.7613  14.2535  14.6597  14.7046  14.7375  14.8319
    14.9603  14.9972

     occupation numbers 
     1.0000   1.0000   1.0000   1.0000   1.0000   1.0000   1.0000   1.0000
     1.0000   1.0000   1.0000   1.0000   1.0000   1.0000   1.0000   1.0000
     1.0000   1.0000   1.0000   1.0000   1.0000   1.0000   1.0000   1.0000
     1.0000   1.0000   1.0000   1.0000   1.0000   1.0000   1.0000   1.0000
     1.0000   1.0000   1.0000   1.0000   1.0000   1.0000   1.0000   1.0000
     1.0000   1.0000   1.0000   1.0000   1.0000   1.0000   1.0000   1.0000
     1.0000   1.0000   1.0000   1.0000   1.0000   1.0000   1.0000   1.0000
     1.0000   1.0000   1.0000   1.0000   1.0000   1.0000   1.0000   1.0000
     1.0000   1.0000   1.0000   1.0000   1.0000   1.0000   1.0000   1.0000
     1.0000   1.0000   1.0000   1.0000   1.0000   1.0000   1.0000   1.0000
     1.0000   1.0000   1.0000   1.0000   1.0000   1.0000   1.0000   1.0000
     1.0000   1.0000   1.0000   1.0000   1.0000   1.0000   1.0000   1.0000
     1.0000   1.0000   1.0000   1.0000   1.0000   1.0000   1.0000   1.0000
     1.0000   1.0000   1.0000   1.0000   1.0000   1.0000   1.0000   1.0000
     1.0000   1.0000   1.0000   1.0000   0.0000   0.0000   0.0000   0.0000
     0.0000   0.0000   0.0000   0.0000   0.0000   0.0000   0.0000   0.0000
     0.0000   0.0000

          k = 0.0000 0.2391 0.2376 ( 37671 PWs)   bands (ev):

   -81.5532 -81.5527 -81.5516 -81.5511 -48.4352 -48.4345 -48.4336 -48.4329
   -47.5477 -47.5474 -47.5463 -47.5456 -46.8255 -46.8248 -46.8238 -46.8232
   -43.3413 -43.3412 -43.3351 -43.3351 -15.5365 -15.5269 -15.3944 -15.3906
   -15.3533 -15.3527 -15.3414 -15.3368 -15.3024 -15.3014 -15.2714 -15.2712
   -14.7988 -14.6603 -14.5060 -14.4213 -12.2908 -12.2739 -12.2519 -12.2153
   -12.1982 -12.1741 -12.1145 -12.0213 -11.9948 -11.9658 -11.9635 -11.9275
    -2.3119  -1.9574  -1.8194  -1.7646  -0.5474  -0.2391  -0.1309  -0.0518
     0.1549   0.2067   0.4240   0.4659   0.5272   0.5734   0.5974   0.8342
     1.7517   1.8908   2.1201   2.2129   2.2575   2.4450   2.4535   2.5665
     2.5929   2.7859   2.8805   2.9478   3.0346   3.0484   3.2147   3.2896
     3.3470   3.3705   3.4798   3.5700   3.6385   3.6595   3.6991   3.8844
     3.8875   4.0091   4.0913   4.3164   4.4189   4.4773   4.7465   4.8335
     4.8958   4.9621   5.0737   5.1718   5.2985   5.3962   5.4606   5.4639
     5.5565   5.7193   6.0513   6.0992   6.1492   6.1954   6.2212   6.3049
     6.3385   6.6132   6.6861   6.7014  10.0997  11.8777  12.2622  12.4640
    12.9835  13.4596  13.9757  13.9905  14.4857  14.5563  14.6881  14.7906
    14.9842  15.0353

     occupation numbers 
     1.0000   1.0000   1.0000   1.0000   1.0000   1.0000   1.0000   1.0000
     1.0000   1.0000   1.0000   1.0000   1.0000   1.0000   1.0000   1.0000
     1.0000   1.0000   1.0000   1.0000   1.0000   1.0000   1.0000   1.0000
     1.0000   1.0000   1.0000   1.0000   1.0000   1.0000   1.0000   1.0000
     1.0000   1.0000   1.0000   1.0000   1.0000   1.0000   1.0000   1.0000
     1.0000   1.0000   1.0000   1.0000   1.0000   1.0000   1.0000   1.0000
     1.0000   1.0000   1.0000   1.0000   1.0000   1.0000   1.0000   1.0000
     1.0000   1.0000   1.0000   1.0000   1.0000   1.0000   1.0000   1.0000
     1.0000   1.0000   1.0000   1.0000   1.0000   1.0000   1.0000   1.0000
     1.0000   1.0000   1.0000   1.0000   1.0000   1.0000   1.0000   1.0000
     1.0000   1.0000   1.0000   1.0000   1.0000   1.0000   1.0000   1.0000
     1.0000   1.0000   1.0000   1.0000   1.0000   1.0000   1.0000   1.0000
     1.0000   1.0000   1.0000   1.0000   1.0000   1.0000   1.0000   1.0000
     1.0000   1.0000   1.0000   1.0000   1.0000   1.0000   1.0000   1.0000
     1.0000   1.0000   1.0000   1.0000   0.0000   0.0000   0.0000   0.0000
     0.0000   0.0000   0.0000   0.0000   0.0000   0.0000   0.0000   0.0000
     0.0000   0.0000

          k = 0.0000 0.2391 0.4753 ( 37686 PWs)   bands (ev):

   -81.5532 -81.5527 -81.5516 -81.5511 -48.4352 -48.4345 -48.4335 -48.4329
   -47.5477 -47.5474 -47.5462 -47.5456 -46.8255 -46.8248 -46.8238 -46.8232
   -43.3413 -43.3412 -43.3351 -43.3351 -15.5222 -15.5141 -15.4132 -15.4094
   -15.3571 -15.3543 -15.3458 -15.3422 -15.2996 -15.2993 -15.2720 -15.2718
   -14.7212 -14.6092 -14.5181 -14.4480 -12.3298 -12.2981 -12.2965 -12.2441
   -12.1789 -12.1588 -12.1165 -12.0370 -12.0093 -11.9879 -11.9464 -11.9166
    -2.2577  -1.9534  -1.8385  -1.7653  -0.3614  -0.1641   0.0147   0.0883
     0.1657   0.2477   0.4456   0.5066   0.5073   0.5491   0.5729   0.7816
     1.7281   1.8506   2.0426   2.1641   2.2291   2.3520   2.3587   2.4616
     2.5729   2.7584   2.8419   2.8642   2.9997   3.0228   3.0682   3.1859
     3.3109   3.3216   3.5461   3.5985   3.6951   3.7660   3.7850   3.8475
     3.9425   4.0730   4.1045   4.3556   4.4845   4.4958   4.7207   4.8101
     4.8772   4.9112   5.0778   5.1904   5.3170   5.3178   5.4088   5.4364
     5.6269   5.7599   6.1010   6.1573   6.1740   6.2204   6.2445   6.2772
     6.2954   6.5606   6.6682   6.7010  10.4874  12.0148  12.3776  12.6116
    13.1162  13.3347  13.5356  14.1640  14.2446  14.2744  14.4554  14.6332
    14.7776  15.0149

     occupation numbers 
     1.0000   1.0000   1.0000   1.0000   1.0000   1.0000   1.0000   1.0000
     1.0000   1.0000   1.0000   1.0000   1.0000   1.0000   1.0000   1.0000
     1.0000   1.0000   1.0000   1.0000   1.0000   1.0000   1.0000   1.0000
     1.0000   1.0000   1.0000   1.0000   1.0000   1.0000   1.0000   1.0000
     1.0000   1.0000   1.0000   1.0000   1.0000   1.0000   1.0000   1.0000
     1.0000   1.0000   1.0000   1.0000   1.0000   1.0000   1.0000   1.0000
     1.0000   1.0000   1.0000   1.0000   1.0000   1.0000   1.0000   1.0000
     1.0000   1.0000   1.0000   1.0000   1.0000   1.0000   1.0000   1.0000
     1.0000   1.0000   1.0000   1.0000   1.0000   1.0000   1.0000   1.0000
     1.0000   1.0000   1.0000   1.0000   1.0000   1.0000   1.0000   1.0000
     1.0000   1.0000   1.0000   1.0000   1.0000   1.0000   1.0000   1.0000
     1.0000   1.0000   1.0000   1.0000   1.0000   1.0000   1.0000   1.0000
     1.0000   1.0000   1.0000   1.0000   1.0000   1.0000   1.0000   1.0000
     1.0000   1.0000   1.0000   1.0000   1.0000   1.0000   1.0000   1.0000
     1.0000   1.0000   1.0000   1.0000   0.0000   0.0000   0.0000   0.0000
     0.0000   0.0000   0.0000   0.0000   0.0000   0.0000   0.0000   0.0000
     0.0000   0.0000

          k = 0.0000 0.2391 0.7129 ( 37698 PWs)   bands (ev):

   -81.5532 -81.5527 -81.5516 -81.5511 -48.4351 -48.4346 -48.4335 -48.4330
   -47.5477 -47.5474 -47.5462 -47.5456 -46.8254 -46.8248 -46.8238 -46.8232
   -43.3413 -43.3412 -43.3351 -43.3351 -15.5150 -15.5085 -15.4252 -15.4235
   -15.3554 -15.3538 -15.3454 -15.3417 -15.2991 -15.2990 -15.2729 -15.2727
   -14.6354 -14.5633 -14.5273 -14.4788 -12.3769 -12.3475 -12.3175 -12.2873
   -12.1544 -12.1372 -12.1128 -12.0615 -12.0241 -12.0128 -11.9275 -11.9092
    -2.1720  -1.9356  -1.8801  -1.8006  -0.0890  -0.0459   0.1124   0.1727
     0.2888   0.2917   0.4139   0.4266   0.5207   0.6599   0.6784   0.7195
     1.6722   1.8267   1.8972   2.0435   2.2109   2.2786   2.2914   2.4088
     2.5160   2.5632   2.6384   2.7531   2.9656   3.0216   3.0614   3.1642
     3.2250   3.2917   3.4624   3.5054   3.7936   3.8779   3.9173   3.9360
     3.9986   4.1489   4.1689   4.3477   4.5015   4.5480   4.6898   4.8268
     4.8586   4.8713   5.0866   5.1624   5.2504   5.3363   5.3955   5.4111
     5.7352   5.8352   6.1287   6.1408   6.1619   6.1968   6.2393   6.2970
     6.3544   6.5021   6.6519   6.6884  11.0121  12.2280  12.3445  12.8611
    13.1474  13.2678  13.3882  13.8192  13.8534  14.2968  14.3653  14.5412
    14.5906  14.9191

     occupation numbers 
     1.0000   1.0000   1.0000   1.0000   1.0000   1.0000   1.0000   1.0000
     1.0000   1.0000   1.0000   1.0000   1.0000   1.0000   1.0000   1.0000
     1.0000   1.0000   1.0000   1.0000   1.0000   1.0000   1.0000   1.0000
     1.0000   1.0000   1.0000   1.0000   1.0000   1.0000   1.0000   1.0000
     1.0000   1.0000   1.0000   1.0000   1.0000   1.0000   1.0000   1.0000
     1.0000   1.0000   1.0000   1.0000   1.0000   1.0000   1.0000   1.0000
     1.0000   1.0000   1.0000   1.0000   1.0000   1.0000   1.0000   1.0000
     1.0000   1.0000   1.0000   1.0000   1.0000   1.0000   1.0000   1.0000
     1.0000   1.0000   1.0000   1.0000   1.0000   1.0000   1.0000   1.0000
     1.0000   1.0000   1.0000   1.0000   1.0000   1.0000   1.0000   1.0000
     1.0000   1.0000   1.0000   1.0000   1.0000   1.0000   1.0000   1.0000
     1.0000   1.0000   1.0000   1.0000   1.0000   1.0000   1.0000   1.0000
     1.0000   1.0000   1.0000   1.0000   1.0000   1.0000   1.0000   1.0000
     1.0000   1.0000   1.0000   1.0000   1.0000   1.0000   1.0000   1.0000
     1.0000   1.0000   1.0000   1.0000   0.0000   0.0000   0.0000   0.0000
     0.0000   0.0000   0.0000   0.0000   0.0000   0.0000   0.0000   0.0000
     0.0000   0.0000

          k = 0.0000 0.2391 0.9505 ( 37713 PWs)   bands (ev):

   -81.5532 -81.5527 -81.5516 -81.5511 -48.4351 -48.4346 -48.4334 -48.4330
   -47.5477 -47.5474 -47.5462 -47.5456 -46.8254 -46.8249 -46.8238 -46.8232
   -43.3413 -43.3412 -43.3351 -43.3351 -15.5166 -15.5139 -15.4243 -15.4241
   -15.3533 -15.3531 -15.3416 -15.3397 -15.2995 -15.2995 -15.2737 -15.2736
   -14.5791 -14.5566 -14.5167 -14.4967 -12.4028 -12.3906 -12.3259 -12.3169
   -12.1282 -12.1143 -12.1123 -12.0895 -12.0345 -12.0309 -11.9140 -11.9078
    -2.0655  -1.9587  -1.9013  -1.8538   0.0502   0.1123   0.1809   0.2330
     0.2992   0.3062   0.3918   0.4339   0.5508   0.6103   0.8402   0.8426
     1.6307   1.7190   1.8319   1.9062   2.1482   2.2029   2.2963   2.3382
     2.4212   2.4792   2.5557   2.6164   2.9648   3.0036   3.1150   3.1375
     3.2206   3.3015   3.3649   3.4110   3.8571   3.9028   3.9402   3.9873
     4.1071   4.2307   4.3077   4.3485   4.4320   4.4896   4.7317   4.7996
     4.8717   4.8787   5.1032   5.1296   5.2435   5.2996   5.3935   5.4107
     5.8731   5.9388   6.0162   6.0518   6.1769   6.1967   6.2764   6.2971
     6.4184   6.4586   6.6510   6.6676  11.5724  12.0665  12.5037  12.7741
    13.1856  13.2326  13.4439  13.5679  13.8450  14.1976  14.2949  14.4040
    14.5533  14.7216

     occupation numbers 
     1.0000   1.0000   1.0000   1.0000   1.0000   1.0000   1.0000   1.0000
     1.0000   1.0000   1.0000   1.0000   1.0000   1.0000   1.0000   1.0000
     1.0000   1.0000   1.0000   1.0000   1.0000   1.0000   1.0000   1.0000
     1.0000   1.0000   1.0000   1.0000   1.0000   1.0000   1.0000   1.0000
     1.0000   1.0000   1.0000   1.0000   1.0000   1.0000   1.0000   1.0000
     1.0000   1.0000   1.0000   1.0000   1.0000   1.0000   1.0000   1.0000
     1.0000   1.0000   1.0000   1.0000   1.0000   1.0000   1.0000   1.0000
     1.0000   1.0000   1.0000   1.0000   1.0000   1.0000   1.0000   1.0000
     1.0000   1.0000   1.0000   1.0000   1.0000   1.0000   1.0000   1.0000
     1.0000   1.0000   1.0000   1.0000   1.0000   1.0000   1.0000   1.0000
     1.0000   1.0000   1.0000   1.0000   1.0000   1.0000   1.0000   1.0000
     1.0000   1.0000   1.0000   1.0000   1.0000   1.0000   1.0000   1.0000
     1.0000   1.0000   1.0000   1.0000   1.0000   1.0000   1.0000   1.0000
     1.0000   1.0000   1.0000   1.0000   1.0000   1.0000   1.0000   1.0000
     1.0000   1.0000   1.0000   1.0000   0.0000   0.0000   0.0000   0.0000
     0.0000   0.0000   0.0000   0.0000   0.0000   0.0000   0.0000   0.0000
     0.0000   0.0000

          k = 0.0000 0.4781 0.0000 ( 37720 PWs)   bands (ev):

   -81.5532 -81.5527 -81.5516 -81.5511 -48.4352 -48.4345 -48.4335 -48.4329
   -47.5477 -47.5474 -47.5463 -47.5456 -46.8254 -46.8248 -46.8238 -46.8232
   -43.3404 -43.3403 -43.3360 -43.3359 -15.5133 -15.5065 -15.3814 -15.3778
   -15.3681 -15.3679 -15.3412 -15.3385 -15.3233 -15.3215 -15.2812 -15.2810
   -14.7544 -14.6408 -14.5178 -14.4692 -12.2632 -12.2546 -12.2339 -12.2259
   -12.2129 -12.1823 -12.1650 -12.0531 -11.9696 -11.9405 -11.9381 -11.9251
    -2.2407  -1.8995  -1.8814  -1.7672  -0.4994  -0.2150  -0.1560  -0.1482
     0.1955   0.2521   0.3236   0.4289   0.5520   0.6462   0.6735   0.7800
     1.8154   1.9186   1.9699   2.2496   2.2946   2.3244   2.3297   2.5707
     2.5976   2.8282   2.8794   2.9390   2.9787   3.0692   3.2210   3.3680
     3.4003   3.4473   3.4684   3.4971   3.6318   3.6731   3.7021   3.9631
     3.9760   3.9901   4.0258   4.2457   4.3151   4.4767   4.6635   4.7035
     4.8769   4.9266   4.9764   5.0680   5.3448   5.4879   5.5349   5.5543
     5.6086   5.6746   6.0263   6.0365   6.1268   6.2089   6.2097   6.2397
     6.2794   6.7216   6.7251   6.7513  10.3947  12.0755  12.1850  12.4567
    12.9955  13.5686  13.8249  14.2419  14.5291  14.7015  14.9223  14.9547
    15.0246  15.1275

     occupation numbers 
     1.0000   1.0000   1.0000   1.0000   1.0000   1.0000   1.0000   1.0000
     1.0000   1.0000   1.0000   1.0000   1.0000   1.0000   1.0000   1.0000
     1.0000   1.0000   1.0000   1.0000   1.0000   1.0000   1.0000   1.0000
     1.0000   1.0000   1.0000   1.0000   1.0000   1.0000   1.0000   1.0000
     1.0000   1.0000   1.0000   1.0000   1.0000   1.0000   1.0000   1.0000
     1.0000   1.0000   1.0000   1.0000   1.0000   1.0000   1.0000   1.0000
     1.0000   1.0000   1.0000   1.0000   1.0000   1.0000   1.0000   1.0000
     1.0000   1.0000   1.0000   1.0000   1.0000   1.0000   1.0000   1.0000
     1.0000   1.0000   1.0000   1.0000   1.0000   1.0000   1.0000   1.0000
     1.0000   1.0000   1.0000   1.0000   1.0000   1.0000   1.0000   1.0000
     1.0000   1.0000   1.0000   1.0000   1.0000   1.0000   1.0000   1.0000
     1.0000   1.0000   1.0000   1.0000   1.0000   1.0000   1.0000   1.0000
     1.0000   1.0000   1.0000   1.0000   1.0000   1.0000   1.0000   1.0000
     1.0000   1.0000   1.0000   1.0000   1.0000   1.0000   1.0000   1.0000
     1.0000   1.0000   1.0000   1.0000   0.0000   0.0000   0.0000   0.0000
     0.0000   0.0000   0.0000   0.0000   0.0000   0.0000   0.0000   0.0000
     0.0000   0.0000

          k = 0.0000 0.4781 0.2376 ( 37687 PWs)   bands (ev):

[...]
     atom    4 type  2   force =     0.00000000    0.00000000    0.00000000
     atom    5 type  1   force =    -0.03955142    0.00000000    0.02586889
     atom    6 type  1   force =     0.03952997    0.00000000    0.02586084
     atom    7 type  1   force =     0.03955142   -0.00000000   -0.02586889
     atom    8 type  1   force =    -0.03952997    0.00000000   -0.02586084
     atom    9 type  4   force =    -0.00679228    0.00000000   -0.03121540
     atom   10 type  4   force =     0.00686239    0.00000000   -0.03127857
     atom   11 type  4   force =     0.00679228    0.00000000    0.03121540
     atom   12 type  4   force =    -0.00686239    0.00000000    0.03127857
     atom   13 type  3   force =     0.16148578    0.00000000   -1.49634130
     atom   14 type  3   force =    -0.16147442    0.00000000   -1.49635314
     atom   15 type  3   force =    -0.16148578    0.00000000    1.49634130
     atom   16 type  3   force =     0.16147442    0.00000000    1.49635314
     atom   17 type  3   force =     1.21813711    0.00000000   -0.65563411
     atom   18 type  3   force =    -1.21816315    0.00000000   -0.65568228
     atom   19 type  3   force =    -1.21813711    0.00000000    0.65563411
     atom   20 type  3   force =     1.21816315    0.00000000    0.65568228
     atom   21 type  3   force =    -0.66441837   -1.03879421    0.69013573
     atom   22 type  3   force =     0.66444984    1.03880506    0.69012373
     atom   23 type  3   force =     0.66441837   -1.03879421   -0.69013573
     atom   24 type  3   force =    -0.66444984    1.03880506   -0.69012373
     atom   25 type  3   force =     0.66441837    1.03879421   -0.69013573
     atom   26 type  3   force =    -0.66444984   -1.03880506   -0.69012373
     atom   27 type  3   force =    -0.66441837    1.03879421    0.69013573
     atom   28 type  3   force =     0.66444984   -1.03880506    0.69012373
     The ionic contribution  to forces
     atom    1 type  2   force =     0.00042623   -0.00006782    0.00019894
     atom    2 type  2   force =    -0.00023530    0.00019650    0.00005062
     atom    3 type  2   force =     0.00054421    0.00019295    0.00025958
     atom    4 type  2   force =    -0.00011732   -0.00007136   -0.00001002
     atom    5 type  1   force =     3.29065366   -0.00076928   -1.33592894
     atom    6 type  1   force =    -3.28875600    0.00075069   -1.33555636
     atom    7 type  1   force =    -3.29107677    0.00075069    1.33599679
     atom    8 type  1   force =     3.28888091   -0.00076928    1.33540774
     atom    9 type  4   force =    -0.90127267   -0.00017898    1.61432259
     atom   10 type  4   force =     0.90223131    0.00016603    1.61368394
     atom   11 type  4   force =     0.90138919    0.00016603   -1.61440019
     atom   12 type  4   force =    -0.90236642   -0.00017898   -1.61364610
     atom   13 type  3   force =    -3.61882150   -0.00024533    1.68194804
     atom   14 type  3   force =     3.61954741    0.00018823    1.68246783
     atom   15 type  3   force =     3.61905669    0.00018823   -1.68191022
     atom   16 type  3   force =    -3.61969794   -0.00024533   -1.68244705
     atom   17 type  3   force =    -1.57920286   -0.00024214    2.51104114
     atom   18 type  3   force =     1.58038840    0.00018262    2.51116812
     atom   19 type  3   force =     1.57899874    0.00018262   -2.51110571
     atom   20 type  3   force =    -1.58007617   -0.00024214   -2.51110797
     atom   21 type  3   force =     0.63817269    2.55424450   -1.28814799
     atom   22 type  3   force =    -0.63756990   -2.55402403   -1.28840462
     atom   23 type  3   force =    -0.63838756    2.55461322    1.28773468
     atom   24 type  3   force =     0.63753788   -2.55452874    1.28819686
     atom   25 type  3   force =    -0.63827579   -2.55418438    1.28794265
     atom   26 type  3   force =     0.63743976    2.55412292    1.28839359
     atom   27 type  3   force =     0.63827080   -2.55465032   -1.28795126
     atom   28 type  3   force =    -0.63768167    2.55445286   -1.28819666
     The local contribution  to forces
     atom    1 type  2   force =    -0.00000000   -0.00000000    0.00000000
     atom    2 type  2   force =    -0.00489882   -0.00015408   -0.00227264
     atom    3 type  2   force =     0.00008074   -0.00193839    0.00004137
     atom    4 type  2   force =    -0.00481809   -0.00178431   -0.00231402
     atom    5 type  1   force =    -3.26048020   -0.00907676    1.30281299
     atom    6 type  1   force =     3.23768439   -0.00226920    1.30220520
     atom    7 type  1   force =     3.23789799   -0.00226919   -1.31350092
     atom    8 type  1   force =    -3.25662505   -0.00907676   -1.31315430
     atom    9 type  4   force =     0.88576431   -0.00002452   -1.58825233
     atom   10 type  4   force =    -0.88676420   -0.00000614   -1.58752112
     atom   11 type  4   force =    -0.88581098   -0.00000613    1.58831901
     atom   12 type  4   force =     0.88675519   -0.00002450    1.58766847
     atom   13 type  3   force =     3.45993186   -0.00210502   -0.17817810
     atom   14 type  3   force =    -3.46554816   -0.00052626   -0.17889751
     atom   15 type  3   force =    -3.46471117   -0.00052625    0.17597592
     atom   16 type  3   force =     3.46049225   -0.00210504    0.17618828
     atom   17 type  3   force =     0.36131602   -0.00210499   -1.86991780
     atom   18 type  3   force =    -0.36658067   -0.00052625   -1.87018220
     atom   19 type  3   force =    -0.36543802   -0.00052625    1.86777162
     atom   20 type  3   force =     0.36221384   -0.00210501    1.86751247
     atom   21 type  3   force =     0.03388786   -1.50127316    0.59655526
     atom   22 type  3   force =    -0.03971132    1.49916545    0.59690140
     atom   23 type  3   force =    -0.03908488   -1.50034113   -0.59895633
     atom   24 type  3   force =     0.03450693    1.49774256   -0.59900457
     atom   25 type  3   force =    -0.03903599    1.49945611   -0.59889240
     atom   26 type  3   force =     0.03470246   -1.50128263   -0.59926030
     atom   27 type  3   force =     0.03369231    1.49773310    0.59629953
     atom   28 type  3   force =    -0.03976021   -1.50005046    0.59696532
     The core correction contribution to forces
     atom    1 type  2   force =     0.00000000    0.00000000    0.00000000
     atom    2 type  2   force =     0.00000000    0.00000000    0.00000000
     atom    3 type  2   force =     0.00000000    0.00000000    0.00000000
     atom    4 type  2   force =     0.00000000    0.00000000    0.00000000
     atom    5 type  1   force =     0.00392013    0.00027369   -0.00082166
     atom    6 type  1   force =    -0.00319949    0.00006842   -0.00083649
     atom    7 type  1   force =    -0.00312766    0.00006842    0.00122841
     atom    8 type  1   force =     0.00384667    0.00027369    0.00121496
     atom    9 type  4   force =     0.00056300    0.00000600    0.00077764
     atom   10 type  4   force =    -0.00055425    0.00000150    0.00078395
     atom   11 type  4   force =    -0.00054767    0.00000150   -0.00076927
     atom   12 type  4   force =     0.00056970    0.00000600   -0.00077530
     atom   13 type  3   force =    -0.00209445   -0.00000114    0.01263153
     atom   14 type  3   force =     0.00209029   -0.00000029    0.01263165
     atom   15 type  3   force =     0.00209003   -0.00000029   -0.01263640
     atom   16 type  3   force =    -0.00209391   -0.00000114   -0.01263504
     atom   17 type  3   force =    -0.01007502   -0.00000106    0.00638080
     atom   18 type  3   force =     0.01006604   -0.00000027    0.00637974
     atom   19 type  3   force =     0.01006755   -0.00000027   -0.00638143
     atom   20 type  3   force =    -0.01007460   -0.00000106   -0.00638271
     atom   21 type  3   force =     0.00555996    0.00856214   -0.00620210
     atom   22 type  3   force =    -0.00556477   -0.00856705   -0.00620367
     atom   23 type  3   force =    -0.00556340    0.00856527    0.00620161
     atom   24 type  3   force =     0.00556085   -0.00856725    0.00620029
     atom   25 type  3   force =    -0.00556369   -0.00856659    0.00620174
     atom   26 type  3   force =     0.00555969    0.00856199    0.00619978
     atom   27 type  3   force =     0.00556112   -0.00856740   -0.00620262
     atom   28 type  3   force =    -0.00556448    0.00856573   -0.00620355
     The Hubbard contrib.    to forces
     atom    1 type  2   force =     0.00000000    0.00000000    0.00000000
     atom    2 type  2   force =     0.00000000    0.00000000    0.00000000
     atom    3 type  2   force =     0.00000000    0.00000000    0.00000000
     atom    4 type  2   force =     0.00000000    0.00000000    0.00000000
     atom    5 type  1   force =     0.00000000    0.00000000    0.00000000
     atom    6 type  1   force =     0.00000000    0.00000000    0.00000000
     atom    7 type  1   force =     0.00000000    0.00000000    0.00000000
     atom    8 type  1   force =     0.00000000    0.00000000    0.00000000
     atom    9 type  4   force =     0.00000000    0.00000000    0.00000000
     atom   10 type  4   force =     0.00000000    0.00000000    0.00000000
     atom   11 type  4   force =     0.00000000    0.00000000    0.00000000
     atom   12 type  4   force =     0.00000000    0.00000000    0.00000000
     atom   13 type  3   force =     0.00000000    0.00000000    0.00000000
     atom   14 type  3   force =     0.00000000    0.00000000    0.00000000
     atom   15 type  3   force =     0.00000000    0.00000000    0.00000000
     atom   16 type  3   force =     0.00000000    0.00000000    0.00000000
     atom   17 type  3   force =     0.00000000    0.00000000    0.00000000
     atom   18 type  3   force =     0.00000000    0.00000000    0.00000000
     atom   19 type  3   force =     0.00000000    0.00000000    0.00000000
     atom   20 type  3   force =     0.00000000    0.00000000    0.00000000
     atom   21 type  3   force =     0.00000000    0.00000000    0.00000000
     atom   22 type  3   force =     0.00000000    0.00000000    0.00000000
     atom   23 type  3   force =     0.00000000    0.00000000    0.00000000
     atom   24 type  3   force =     0.00000000    0.00000000    0.00000000
     atom   25 type  3   force =     0.00000000    0.00000000    0.00000000
     atom   26 type  3   force =     0.00000000    0.00000000    0.00000000
     atom   27 type  3   force =     0.00000000    0.00000000    0.00000000
     atom   28 type  3   force =     0.00000000    0.00000000    0.00000000
     The SCF correction term to forces
     atom    1 type  2   force =     0.00000000   -0.00000000    0.00000000
     atom    2 type  2   force =    -0.00000001    0.00000000   -0.00000001
     atom    3 type  2   force =     0.00000000   -0.00000000    0.00000000
     atom    4 type  2   force =    -0.00000001   -0.00000000   -0.00000001
     atom    5 type  1   force =     0.00000511   -0.00000004   -0.00000189
     atom    6 type  1   force =     0.00000207   -0.00000000    0.00000047
     atom    7 type  1   force =    -0.00000520   -0.00000001    0.00000185
     atom    8 type  1   force =    -0.00000213   -0.00000004   -0.00000051
     atom    9 type  4   force =     0.00000137   -0.00000000    0.00000001
     atom   10 type  4   force =     0.00000189    0.00000000   -0.00000050
     atom   11 type  4   force =    -0.00000137    0.00000000   -0.00000001
     atom   12 type  4   force =    -0.00000189   -0.00000000    0.00000050
     atom   13 type  3   force =     0.00000309   -0.00000000    0.00000029
     atom   14 type  3   force =     0.00000339    0.00000000   -0.00000062
     atom   15 type  3   force =    -0.00000309    0.00000000   -0.00000029
     atom   16 type  3   force =    -0.00000340   -0.00000000    0.00000062
     atom   17 type  3   force =    -0.00000225   -0.00000000   -0.00000095
     atom   18 type  3   force =    -0.00000219    0.00000000    0.00000048
     atom   19 type  3   force =     0.00000225    0.00000000    0.00000094
     atom   20 type  3   force =     0.00000219   -0.00000000   -0.00000048
     atom   21 type  3   force =     0.00000140   -0.00000370   -0.00000135
     atom   22 type  3   force =     0.00000189   -0.00000318    0.00000112
     atom   23 type  3   force =    -0.00000141   -0.00000370    0.00000134
     atom   24 type  3   force =    -0.00000190   -0.00000319   -0.00000112
     atom   25 type  3   force =    -0.00000141    0.00000370    0.00000135
     atom   26 type  3   force =    -0.00000190    0.00000318   -0.00000112
     atom   27 type  3   force =     0.00000140    0.00000369   -0.00000135
     atom   28 type  3   force =     0.00000189    0.00000319    0.00000112

     Total force =     0.107365     Total SCF correction =     0.000017


     Computing stress (Cartesian axis) and pressure


     negative rho (up, down):  0.000E+00 4.998E-04
          total   stress  (Ry/bohr**3)                   (kbar)     P=       15.21
   0.00001852   0.00000000   0.00000004            2.72        0.00        0.01
   0.00000000   0.00009630   0.00000000            0.00       14.17        0.00
   0.00000004   0.00000000   0.00019533            0.01        0.00       28.73

     kinetic stress (kbar)  31132.90      0.00     -0.00
                                0.00  31027.02      0.00
                               -0.00      0.00  31149.71

     local   stress (kbar)  -4765.23     -0.10      0.01
                               -0.10  -5570.57     -0.00
                                0.01     -0.00  -2131.36

     nonloc. stress (kbar)  -9311.09      0.00      0.00
                                0.00  -9383.93      0.00
                                0.00      0.00  -9247.14

     hartree stress (kbar)  14531.45     -0.00     -0.02
                               -0.00  14911.91      0.00
                               -0.02      0.00  13204.82

     exc-cor stress (kbar)  -3528.36      0.00      0.00
                                0.00  -3533.53     -0.00
                                0.00     -0.00  -3524.22

     corecor stress (kbar)  -3017.88     -0.00     -0.00
                               -0.00  -3003.93      0.00
                               -0.00      0.00  -3027.10

     ewald   stress (kbar) -25039.05      0.09      0.01
                                0.09 -24432.81      0.00
                                0.01      0.00 -26395.97

     hubbard stress (kbar)      0.00      0.00      0.00
                                0.00      0.00      0.00
                                0.00      0.00      0.00

     DFT-D   stress (kbar)      0.00      0.00      0.00
                                0.00      0.00      0.00
                                0.00      0.00      0.00

     XDM     stress (kbar)      0.00      0.00      0.00
                                0.00      0.00      0.00
                                0.00      0.00      0.00

     dft-nl  stress (kbar)      0.00      0.00      0.00
                                0.00      0.00      0.00
                                0.00      0.00      0.00

     TS-vdW  stress (kbar)      0.00      0.00      0.00
                                0.00      0.00      0.00
                                0.00      0.00      0.00



     init_run     :   1335.38s CPU   1626.24s WALL (       1 calls)
     electrons    : 141828.10s CPU 174111.37s WALL (       1 calls)
     forces       :    179.91s CPU    250.21s WALL (       1 calls)
     stress       :    693.84s CPU    964.68s WALL (       1 calls)

     Called by init_run:
     wfcinit      :   1314.86s CPU   1600.56s WALL (       1 calls)
     wfcinit:atom :      1.17s CPU      1.50s WALL (     184 calls)
     wfcinit:wfcr :   1307.67s CPU   1591.41s WALL (     184 calls)
     potinit      :      8.53s CPU     10.36s WALL (       1 calls)
     hinit0       :      7.76s CPU      9.31s WALL (       1 calls)

     Called by electrons:
     c_bands      : 118771.24s CPU 145438.58s WALL (      44 calls)
     sum_band     :  22694.58s CPU  28200.79s WALL (      44 calls)
     v_of_rho     :     99.20s CPU    125.23s WALL (      45 calls)
     v_h          :      6.76s CPU      8.24s WALL (      45 calls)
     v_xc         :     96.15s CPU    122.30s WALL (      47 calls)
     newd         :    134.61s CPU    189.36s WALL (      45 calls)
     PAW_pot      :     43.03s CPU     52.15s WALL (      45 calls)
     mix_rho      :     65.06s CPU     81.15s WALL (      44 calls)

     Called by c_bands:
     init_us_2    :    176.13s CPU    234.96s WALL (   16744 calls)
     cegterg      : 117653.20s CPU 144021.70s WALL (    8096 calls)

     Called by sum_band:
     sum_band:wei :      0.45s CPU      0.61s WALL (      44 calls)
     sum_band:loo :  22346.88s CPU  27734.40s WALL (      44 calls)
     sum_band:buf :     54.87s CPU     64.73s WALL (    8096 calls)
     sum_band:ini :     73.89s CPU    100.88s WALL (    8096 calls)
     sum_band:cal :   1853.25s CPU   2290.25s WALL (    8096 calls)
     sum_band:bec :      7.46s CPU      8.24s WALL (    8096 calls)
     addusdens    :    289.61s CPU    402.25s WALL (      44 calls)
     addusd:skk   :      1.61s CPU      2.11s WALL (     132 calls)
     addusd:dgemm :     94.61s CPU    151.74s WALL (     264 calls)
     addusd:qvan2 :    190.31s CPU    244.06s WALL (     264 calls)

     Called by *egterg:
     cdiaghg      :   2788.48s CPU   3474.72s WALL (   27797 calls)
     cegterg:over :   5336.98s CPU   6430.48s WALL (   19701 calls)
     cegterg:upda :   1188.03s CPU   1497.15s WALL (   19701 calls)
     cegterg:last :   2457.68s CPU   3081.77s WALL (   13341 calls)
     h_psi        :  99950.27s CPU 122406.69s WALL (   27981 calls)
     s_psi        :   2472.88s CPU   3088.68s WALL (   27981 calls)
     g_psi        :     17.45s CPU     21.64s WALL (   19701 calls)

     Called by h_psi:
     h_psi:calbec :   4731.62s CPU   5744.22s WALL (   27981 calls)
     vloc_psi     :  92612.83s CPU 113349.85s WALL (   27981 calls)
     add_vuspsi   :   2528.02s CPU   3219.89s WALL (   27981 calls)

     General routines
     calbec       :   6790.15s CPU   8318.05s WALL (   36997 calls)
     fft          :    113.88s CPU    142.73s WALL (    1163 calls)
     ffts         :     13.51s CPU     16.71s WALL (     178 calls)
     fftw         : 112558.41s CPU 138206.73s WALL ( 5763512 calls)
     interpolate  :     15.58s CPU     18.74s WALL (      90 calls)

     Parallel routines
     fft_scatt_xy :    549.79s CPU    574.67s WALL ( 5764853 calls)
     fft_scatt_yz : 109838.45s CPU 135414.67s WALL ( 5764853 calls)

     PAW routines
     PAW_pot      :     43.03s CPU     52.15s WALL (      45 calls)
     PAW_symme    :      5.07s CPU      5.84s WALL (      89 calls)

     PWSCF        :   1d16h 0m CPU   2d 1h 9m WALL


   This run was terminated on:   2:12:18   6Feb2023            

=------------------------------------------------------------------------------=
   JOB DONE.
=------------------------------------------------------------------------------=
Note: The following floating-point exceptions are signalling: IEEE_UNDERFLOW_FLAG IEEE_DENORMAL
Note: The following floating-point exceptions are signalling: IEEE_DENORMAL
Note: The following floating-point exceptions are signalling: IEEE_DENORMAL
Note: The following floating-point exceptions are signalling: IEEE_INVALID_FLAG IEEE_DENORMAL
Note: The following floating-point exceptions are signalling: IEEE_DENORMAL
Note: The following floating-point exceptions are signalling: IEEE_DENORMAL
Note: The following floating-point exceptions are signalling: IEEE_DENORMAL
Note: The following floating-point exceptions are signalling: IEEE_DENORMAL
Note: The following floating-point exceptions are signalling: IEEE_INVALID_FLAG IEEE_DENORMAL
Note: The following floating-point exceptions are signalling: IEEE_DENORMAL
Note: The following floating-point exceptions are signalling: IEEE_DENORMAL
