
     Program PWSCF v.6.7MaX starts on  4Feb2023 at 22:23:26 

     This program is part of the open-source Quantum ESPRESSO suite
     for quantum simulation of materials; please cite
         "P. Giannozzi et al., J. Phys.:Condens. Matter 21 395502 (2009);
         "P. Giannozzi et al., J. Phys.:Condens. Matter 29 465901 (2017);
          URL http://www.quantum-espresso.org", 
     in publications or presentations arising from this work. More details at
     http://www.quantum-espresso.org/quote

     Parallel version (MPI), running on    12 processors

     MPI processes distributed on     1 nodes
     R & G space division:  proc/nbgrp/npool/nimage =      12
     Reading input from scale_3d-00.in

     Current dimensions of program PWSCF are:
     Max number of different atomic species (ntypx) = 10
     Max number of k-points (npk) =  40000
     Max angular momentum in pseudopotentials (lmaxx) =  3
     Message from routine read_pp_mesh:
     mesh size missing, using the one in header
     file Fe.pbe-spn-kjpaw_psl.0.2.1.UPF: wavefunction(s)  3D renormalized
     file O.pbe-n-kjpaw_psl.0.1.UPF: wavefunction(s)  2P renormalized

     Subspace diagonalization in iterative solution of the eigenvalue problem:
     a serial algorithm will be used

     Message from routine setup:
     using ibrav=0 with symmetry is DISCOURAGED, use correct ibrav instead

     Parallelization info
     --------------------
     sticks:   dense  smooth     PW     G-vecs:    dense   smooth      PW
     Min        1493     553    149                92509    20863    2948
     Max        1495     555    151                92510    20864    2950
     Sum       17927    6645   1805              1110111   250361   35385



     bravais-lattice index     =            0
     lattice parameter (alat)  =      18.6818  a.u.
     unit-cell volume          =    1852.2367 (a.u.)^3
     number of atoms/cell      =           28
     number of atomic types    =            4
     number of electrons       =       216.00
     number of Kohn-Sham states=          130
     kinetic-energy cutoff     =     100.0000  Ry
     charge density cutoff     =    1080.0000  Ry
     scf convergence threshold =      2.0E-10
     mixing beta               =       0.4000
     number of iterations used =            8  plain     mixing
     Exchange-correlation= PBE
                           (   1   4   3   4   0   0   0)

     celldm(1)=  18.681804  celldm(2)=   0.000000  celldm(3)=   0.000000
     celldm(4)=   0.000000  celldm(5)=   0.000000  celldm(6)=   0.000000

     crystal axes: (cart. coord. in units of alat)
               a(1) = (   1.000000   0.000000   0.000000 )  
               a(2) = (   0.000000   0.597590   0.000000 )  
               a(3) = (   0.000000   0.000000   0.475375 )  

     reciprocal axes: (cart. coord. in units 2 pi/alat)
               b(1) = (  1.000000  0.000000  0.000000 )  
               b(2) = (  0.000000  1.673388  0.000000 )  
               b(3) = (  0.000000  0.000000  2.103600 )  


     PseudoPot. # 1 for Fe read from file:
     /opt/QEpot/SSSP_precision_pseudos/Fe.pbe-spn-kjpaw_psl.0.2.1.UPF
     MD5 check sum: e86618425769142926afa95317d90200
     Pseudo is Projector augmented-wave + core cor, Zval = 16.0
     Generated using "atomic" code by A. Dal Corso  v.5.0.99 svn rev. 10869
     Shape of augmentation charge: PSQ
     Using radial grid of 1191 points,  6 beta functions with: 
                l(1) =   0
                l(2) =   0
                l(3) =   1
                l(4) =   1
                l(5) =   2
                l(6) =   2
     Q(r) pseudized with 0 coefficients 


     PseudoPot. # 2 for Na read from file:
     /opt/QEpot/SSSP_precision_pseudos/Na_ONCV_PBE-1.0.oncvpsp.upf
     MD5 check sum: 24a298df0a6742ae313db96548fdb2a4
     Pseudo is Norm-conserving, Zval =  9.0
     Generated using ONCVPSP code by D. R. Hamann
     Using radial grid of 1992 points,  4 beta functions with: 
                l(1) =   0
                l(2) =   0
                l(3) =   1
                l(4) =   1

     PseudoPot. # 3 for O  read from file:
     /opt/QEpot/SSSP_precision_pseudos/O.pbe-n-kjpaw_psl.0.1.UPF
     MD5 check sum: 0234752ac141de4415c5fc33072bef88
     Pseudo is Projector augmented-wave + core cor, Zval =  6.0
     Generated using "atomic" code by A. Dal Corso  v.5.0.99 svn rev. 10869
     Shape of augmentation charge: BESSEL
     Using radial grid of 1095 points,  4 beta functions with: 
                l(1) =   0
                l(2) =   0
                l(3) =   1
                l(4) =   1
     Q(r) pseudized with 0 coefficients 


     PseudoPot. # 4 for P  read from file:
     /opt/QEpot/SSSP_precision_pseudos/P.pbe-n-rrkjus_psl.1.0.0.UPF
     MD5 check sum: 8b930f418f0a4573dca56cd030ffe088
     Pseudo is Ultrasoft + core correction, Zval =  5.0
     Generated using "atomic" code by A. Dal Corso  v.5.1
     Using radial grid of 1147 points,  6 beta functions with: 
                l(1) =   0
                l(2) =   0
                l(3) =   1
                l(4) =   1
                l(5) =   2
                l(6) =   2
     Q(r) pseudized with 0 coefficients 


     atomic species   valence    mass     pseudopotential
        Fe            16.00    55.84500     Fe( 1.00)
        Na             9.00    22.98977     Na( 1.00)
        O              6.00    15.99940     O ( 1.00)
        P              5.00    30.97376     P ( 1.00)

     Starting magnetic structure 
     atomic species   magnetization
        Fe           0.312
        Na           0.000
        O            0.000
        P            0.000

      4 Sym. Ops., with inversion, found ( 2 have fractional translation)


                                    s                        frac. trans.

      isym =  1     identity                                     

 cryst.   s( 1) = (     1          0          0      )
                  (     0          1          0      )
                  (     0          0          1      )

 cart.    s( 1) = (  1.0000000  0.0000000  0.0000000 )
                  (  0.0000000  1.0000000  0.0000000 )
                  (  0.0000000  0.0000000  1.0000000 )


      isym =  2     180 deg rotation - cart. axis [0,1,0]        

 cryst.   s( 2) = (    -1          0          0      )    f =(  0.0000000 )
                  (     0          1          0      )       ( -0.4999980 )
                  (     0          0         -1      )       (  0.0000000 )

 cart.    s( 2) = ( -1.0000000  0.0000000  0.0000000 )    f =(  0.0000000 )
                  (  0.0000000  1.0000000  0.0000000 )       ( -0.2987938 )
                  (  0.0000000  0.0000000 -1.0000000 )       (  0.0000000 )


      isym =  3     inversion                                    

 cryst.   s( 3) = (    -1          0          0      )
                  (     0         -1          0      )
                  (     0          0         -1      )

 cart.    s( 3) = ( -1.0000000  0.0000000  0.0000000 )
                  (  0.0000000 -1.0000000  0.0000000 )
                  (  0.0000000  0.0000000 -1.0000000 )


      isym =  4     inv. 180 deg rotation - cart. axis [0,1,0]   

 cryst.   s( 4) = (     1          0          0      )    f =(  0.0000000 )
                  (     0         -1          0      )       (  0.4999980 )
                  (     0          0          1      )       (  0.0000000 )

 cart.    s( 4) = (  1.0000000  0.0000000  0.0000000 )    f =(  0.0000000 )
                  (  0.0000000 -1.0000000  0.0000000 )       (  0.2987938 )
                  (  0.0000000  0.0000000  1.0000000 )       (  0.0000000 )


   Cartesian axes

     site n.     atom                  positions (alat units)
         1           Na  tau(   1) = (   0.0000000   0.0000000   0.0000000  )
         2           Na  tau(   2) = (   0.5000030   0.5975899   0.2376892  )
         3           Na  tau(   3) = (   0.0000000   0.2987962   0.0000000  )
         4           Na  tau(   4) = (   0.5000030   0.2987962   0.2376892  )
         5           Fe  tau(   5) = (   0.2870220   0.4481948   0.4689037  )
         6           Fe  tau(   6) = (   0.2129810   0.1493981   0.2312146  )
         7           Fe  tau(   7) = (   0.7129840   0.1493981   0.0064746  )
         8           Fe  tau(   8) = (   0.7870240   0.4481948   0.2441638  )
         9           P   tau(   9) = (   0.1083410   0.4481948   0.2104074  )
        10           P   tau(  10) = (   0.3916620   0.1493981   0.4480965  )
        11           P   tau(  11) = (   0.8916650   0.1493981   0.2649710  )
        12           P   tau(  12) = (   0.6083440   0.4481948   0.0272818  )
        13           O   tau(  13) = (   0.1140120   0.4481948   0.3576839  )
        14           O   tau(  14) = (   0.3859910   0.1493981   0.1199948  )
        15           O   tau(  15) = (   0.8859940   0.1493981   0.1176949  )
        16           O   tau(  16) = (   0.6140150   0.4481948   0.3553841  )
        17           O   tau(  17) = (   0.4685140   0.4481948   0.0765925  )
        18           O   tau(  18) = (   0.0314890   0.1493981   0.3142817  )
        19           O   tau(  19) = (   0.5314920   0.1493981   0.3987858  )
        20           O   tau(  20) = (   0.9685170   0.4481948   0.1610967  )
        21           O   tau(  21) = (   0.1755910   0.5644936   0.1482287  )
        22           O   tau(  22) = (   0.3244120   0.0330993   0.3859179  )
        23           O   tau(  23) = (   0.8244150   0.2656968   0.3271496  )
        24           O   tau(  24) = (   0.6755940   0.3318961   0.0894604  )
        25           O   tau(  25) = (   0.8244150   0.0330993   0.3271496  )
        26           O   tau(  26) = (   0.6755940   0.5644936   0.0894604  )
        27           O   tau(  27) = (   0.1755910   0.3318961   0.1482287  )
        28           O   tau(  28) = (   0.3244120   0.2656968   0.3859179  )

   Crystallographic axes

     site n.     atom                  positions (cryst. coord.)
         1           Na  tau(   1) = (  0.0000000  0.0000000  0.0000000  )
         2           Na  tau(   2) = (  0.5000030  1.0000000  0.5000030  )
         3           Na  tau(   3) = (  0.0000000  0.5000020  0.0000000  )
         4           Na  tau(   4) = (  0.5000030  0.5000020  0.5000030  )
         5           Fe  tau(   5) = (  0.2870220  0.7500040  0.9863860  )
         6           Fe  tau(   6) = (  0.2129810  0.2500010  0.4863830  )
         7           Fe  tau(   7) = (  0.7129840  0.2500010  0.0136200  )
         8           Fe  tau(   8) = (  0.7870240  0.7500040  0.5136230  )
         9           P   tau(   9) = (  0.1083410  0.7500040  0.4426130  )
        10           P   tau(  10) = (  0.3916620  0.2500010  0.9426160  )
        11           P   tau(  11) = (  0.8916650  0.2500010  0.5573930  )
        12           P   tau(  12) = (  0.6083440  0.7500040  0.0573900  )
        13           O   tau(  13) = (  0.1140120  0.7500040  0.7524240  )
        14           O   tau(  14) = (  0.3859910  0.2500010  0.2524210  )
        15           O   tau(  15) = (  0.8859940  0.2500010  0.2475830  )
        16           O   tau(  16) = (  0.6140150  0.7500040  0.7475860  )
        17           O   tau(  17) = (  0.4685140  0.7500040  0.1611200  )
        18           O   tau(  18) = (  0.0314890  0.2500010  0.6611230  )
        19           O   tau(  19) = (  0.5314920  0.2500010  0.8388860  )
        20           O   tau(  20) = (  0.9685170  0.7500040  0.3388830  )
        21           O   tau(  21) = (  0.1755910  0.9446170  0.3118140  )
        22           O   tau(  22) = (  0.3244120  0.0553880  0.8118170  )
        23           O   tau(  23) = (  0.8244150  0.4446140  0.6881920  )
        24           O   tau(  24) = (  0.6755940  0.5553910  0.1881890  )
        25           O   tau(  25) = (  0.8244150  0.0553880  0.6881920  )
        26           O   tau(  26) = (  0.6755940  0.9446170  0.1881890  )
        27           O   tau(  27) = (  0.1755910  0.5553910  0.3118140  )
        28           O   tau(  28) = (  0.3244120  0.4446140  0.8118170  )

     number of k points=    92  Marzari-Vanderbilt smearing, width (Ry)=  0.0073
                       cart. coord. in units 2pi/alat
        k(    1) = (   0.0000000   0.0000000   0.0000000), wk =   0.0031746
        k(    2) = (   0.0000000   0.0000000   0.2337334), wk =   0.0063492
        k(    3) = (   0.0000000   0.0000000   0.4674667), wk =   0.0063492
        k(    4) = (   0.0000000   0.0000000   0.7012001), wk =   0.0063492
        k(    5) = (   0.0000000   0.0000000   0.9349334), wk =   0.0063492
        k(    6) = (   0.0000000   0.2390555   0.0000000), wk =   0.0063492
        k(    7) = (   0.0000000   0.2390555   0.2337334), wk =   0.0126984
        k(    8) = (   0.0000000   0.2390555   0.4674667), wk =   0.0126984
        k(    9) = (   0.0000000   0.2390555   0.7012001), wk =   0.0126984
        k(   10) = (   0.0000000   0.2390555   0.9349334), wk =   0.0126984
        k(   11) = (   0.0000000   0.4781110   0.0000000), wk =   0.0063492
        k(   12) = (   0.0000000   0.4781110   0.2337334), wk =   0.0126984
        k(   13) = (   0.0000000   0.4781110   0.4674667), wk =   0.0126984
        k(   14) = (   0.0000000   0.4781110   0.7012001), wk =   0.0126984
        k(   15) = (   0.0000000   0.4781110   0.9349334), wk =   0.0126984
        k(   16) = (   0.0000000   0.7171664   0.0000000), wk =   0.0063492
        k(   17) = (   0.0000000   0.7171664   0.2337334), wk =   0.0126984
        k(   18) = (   0.0000000   0.7171664   0.4674667), wk =   0.0126984
        k(   19) = (   0.0000000   0.7171664   0.7012001), wk =   0.0126984
        k(   20) = (   0.0000000   0.7171664   0.9349334), wk =   0.0126984
        k(   21) = (   0.2000000   0.0000000   0.0000000), wk =   0.0063492
        k(   22) = (   0.2000000   0.0000000   0.2337334), wk =   0.0063492
        k(   23) = (   0.2000000   0.0000000   0.4674667), wk =   0.0063492
        k(   24) = (   0.2000000   0.0000000   0.7012001), wk =   0.0063492
        k(   25) = (   0.2000000   0.0000000   0.9349334), wk =   0.0063492
        k(   26) = (   0.2000000   0.2390555   0.0000000), wk =   0.0126984
        k(   27) = (   0.2000000   0.2390555   0.2337334), wk =   0.0126984
        k(   28) = (   0.2000000   0.2390555   0.4674667), wk =   0.0126984
        k(   29) = (   0.2000000   0.2390555   0.7012001), wk =   0.0126984
        k(   30) = (   0.2000000   0.2390555   0.9349334), wk =   0.0126984
        k(   31) = (   0.2000000   0.4781110   0.0000000), wk =   0.0126984
        k(   32) = (   0.2000000   0.4781110   0.2337334), wk =   0.0126984
        k(   33) = (   0.2000000   0.4781110   0.4674667), wk =   0.0126984
        k(   34) = (   0.2000000   0.4781110   0.7012001), wk =   0.0126984
        k(   35) = (   0.2000000   0.4781110   0.9349334), wk =   0.0126984
        k(   36) = (   0.2000000   0.7171664   0.0000000), wk =   0.0126984
        k(   37) = (   0.2000000   0.7171664   0.2337334), wk =   0.0126984
        k(   38) = (   0.2000000   0.7171664   0.4674667), wk =   0.0126984
        k(   39) = (   0.2000000   0.7171664   0.7012001), wk =   0.0126984
        k(   40) = (   0.2000000   0.7171664   0.9349334), wk =   0.0126984
        k(   41) = (   0.4000000   0.0000000   0.0000000), wk =   0.0063492
        k(   42) = (   0.4000000   0.0000000   0.2337334), wk =   0.0063492
        k(   43) = (   0.4000000   0.0000000   0.4674667), wk =   0.0063492
        k(   44) = (   0.4000000   0.0000000   0.7012001), wk =   0.0063492
        k(   45) = (   0.4000000   0.0000000   0.9349334), wk =   0.0063492
        k(   46) = (   0.4000000   0.2390555   0.0000000), wk =   0.0126984
        k(   47) = (   0.4000000   0.2390555   0.2337334), wk =   0.0126984
        k(   48) = (   0.4000000   0.2390555   0.4674667), wk =   0.0126984
        k(   49) = (   0.4000000   0.2390555   0.7012001), wk =   0.0126984
        k(   50) = (   0.4000000   0.2390555   0.9349334), wk =   0.0126984
        k(   51) = (   0.4000000   0.4781110   0.0000000), wk =   0.0126984
        k(   52) = (   0.4000000   0.4781110   0.2337334), wk =   0.0126984
        k(   53) = (   0.4000000   0.4781110   0.4674667), wk =   0.0126984
        k(   54) = (   0.4000000   0.4781110   0.7012001), wk =   0.0126984
        k(   55) = (   0.4000000   0.4781110   0.9349334), wk =   0.0126984
        k(   56) = (   0.4000000   0.7171664   0.0000000), wk =   0.0126984
        k(   57) = (   0.4000000   0.7171664   0.2337334), wk =   0.0126984
        k(   58) = (   0.4000000   0.7171664   0.4674667), wk =   0.0126984
        k(   59) = (   0.4000000   0.7171664   0.7012001), wk =   0.0126984
        k(   60) = (   0.4000000   0.7171664   0.9349334), wk =   0.0126984
        k(   61) = (  -0.2000000   0.0000000   0.2337334), wk =   0.0063492
        k(   62) = (  -0.2000000   0.0000000   0.4674667), wk =   0.0063492
        k(   63) = (  -0.2000000   0.0000000   0.7012001), wk =   0.0063492
        k(   64) = (  -0.2000000   0.0000000   0.9349334), wk =   0.0063492
        k(   65) = (  -0.2000000  -0.2390555   0.2337334), wk =   0.0126984
        k(   66) = (  -0.2000000  -0.2390555   0.4674667), wk =   0.0126984
        k(   67) = (  -0.2000000  -0.2390555   0.7012001), wk =   0.0126984
        k(   68) = (  -0.2000000  -0.2390555   0.9349334), wk =   0.0126984
        k(   69) = (  -0.2000000  -0.4781110   0.2337334), wk =   0.0126984
        k(   70) = (  -0.2000000  -0.4781110   0.4674667), wk =   0.0126984
        k(   71) = (  -0.2000000  -0.4781110   0.7012001), wk =   0.0126984
        k(   72) = (  -0.2000000  -0.4781110   0.9349334), wk =   0.0126984
        k(   73) = (  -0.2000000  -0.7171664   0.2337334), wk =   0.0126984
        k(   74) = (  -0.2000000  -0.7171664   0.4674667), wk =   0.0126984
        k(   75) = (  -0.2000000  -0.7171664   0.7012001), wk =   0.0126984
        k(   76) = (  -0.2000000  -0.7171664   0.9349334), wk =   0.0126984
        k(   77) = (  -0.4000000   0.0000000   0.2337334), wk =   0.0063492
        k(   78) = (  -0.4000000   0.0000000   0.4674667), wk =   0.0063492
        k(   79) = (  -0.4000000   0.0000000   0.7012001), wk =   0.0063492
        k(   80) = (  -0.4000000   0.0000000   0.9349334), wk =   0.0063492
        k(   81) = (  -0.4000000  -0.2390555   0.2337334), wk =   0.0126984
        k(   82) = (  -0.4000000  -0.2390555   0.4674667), wk =   0.0126984
        k(   83) = (  -0.4000000  -0.2390555   0.7012001), wk =   0.0126984
        k(   84) = (  -0.4000000  -0.2390555   0.9349334), wk =   0.0126984
        k(   85) = (  -0.4000000  -0.4781110   0.2337334), wk =   0.0126984
        k(   86) = (  -0.4000000  -0.4781110   0.4674667), wk =   0.0126984
        k(   87) = (  -0.4000000  -0.4781110   0.7012001), wk =   0.0126984
        k(   88) = (  -0.4000000  -0.4781110   0.9349334), wk =   0.0126984
        k(   89) = (  -0.4000000  -0.7171664   0.2337334), wk =   0.0126984
        k(   90) = (  -0.4000000  -0.7171664   0.4674667), wk =   0.0126984
        k(   91) = (  -0.4000000  -0.7171664   0.7012001), wk =   0.0126984
        k(   92) = (  -0.4000000  -0.7171664   0.9349334), wk =   0.0126984

                       cryst. coord.
        k(    1) = (   0.0000000   0.0000000   0.0000000), wk =   0.0031746
        k(    2) = (   0.0000000   0.0000000   0.1111111), wk =   0.0063492
        k(    3) = (   0.0000000   0.0000000   0.2222222), wk =   0.0063492
        k(    4) = (   0.0000000   0.0000000   0.3333333), wk =   0.0063492
        k(    5) = (   0.0000000   0.0000000   0.4444444), wk =   0.0063492
        k(    6) = (   0.0000000   0.1428571   0.0000000), wk =   0.0063492
        k(    7) = (   0.0000000   0.1428571   0.1111111), wk =   0.0126984
        k(    8) = (   0.0000000   0.1428571   0.2222222), wk =   0.0126984
        k(    9) = (   0.0000000   0.1428571   0.3333333), wk =   0.0126984
        k(   10) = (   0.0000000   0.1428571   0.4444444), wk =   0.0126984
        k(   11) = (   0.0000000   0.2857143   0.0000000), wk =   0.0063492
        k(   12) = (   0.0000000   0.2857143   0.1111111), wk =   0.0126984
        k(   13) = (   0.0000000   0.2857143   0.2222222), wk =   0.0126984
        k(   14) = (   0.0000000   0.2857143   0.3333333), wk =   0.0126984
        k(   15) = (   0.0000000   0.2857143   0.4444444), wk =   0.0126984
        k(   16) = (   0.0000000   0.4285714   0.0000000), wk =   0.0063492
        k(   17) = (   0.0000000   0.4285714   0.1111111), wk =   0.0126984
        k(   18) = (   0.0000000   0.4285714   0.2222222), wk =   0.0126984
        k(   19) = (   0.0000000   0.4285714   0.3333333), wk =   0.0126984
        k(   20) = (   0.0000000   0.4285714   0.4444444), wk =   0.0126984
        k(   21) = (   0.2000000   0.0000000   0.0000000), wk =   0.0063492
        k(   22) = (   0.2000000   0.0000000   0.1111111), wk =   0.0063492
        k(   23) = (   0.2000000   0.0000000   0.2222222), wk =   0.0063492
        k(   24) = (   0.2000000   0.0000000   0.3333333), wk =   0.0063492
        k(   25) = (   0.2000000   0.0000000   0.4444444), wk =   0.0063492
        k(   26) = (   0.2000000   0.1428571   0.0000000), wk =   0.0126984
        k(   27) = (   0.2000000   0.1428571   0.1111111), wk =   0.0126984
        k(   28) = (   0.2000000   0.1428571   0.2222222), wk =   0.0126984
        k(   29) = (   0.2000000   0.1428571   0.3333333), wk =   0.0126984
        k(   30) = (   0.2000000   0.1428571   0.4444444), wk =   0.0126984
        k(   31) = (   0.2000000   0.2857143   0.0000000), wk =   0.0126984
        k(   32) = (   0.2000000   0.2857143   0.1111111), wk =   0.0126984
        k(   33) = (   0.2000000   0.2857143   0.2222222), wk =   0.0126984
        k(   34) = (   0.2000000   0.2857143   0.3333333), wk =   0.0126984
        k(   35) = (   0.2000000   0.2857143   0.4444444), wk =   0.0126984
        k(   36) = (   0.2000000   0.4285714   0.0000000), wk =   0.0126984
        k(   37) = (   0.2000000   0.4285714   0.1111111), wk =   0.0126984
        k(   38) = (   0.2000000   0.4285714   0.2222222), wk =   0.0126984
        k(   39) = (   0.2000000   0.4285714   0.3333333), wk =   0.0126984
        k(   40) = (   0.2000000   0.4285714   0.4444444), wk =   0.0126984
        k(   41) = (   0.4000000   0.0000000   0.0000000), wk =   0.0063492
        k(   42) = (   0.4000000   0.0000000   0.1111111), wk =   0.0063492
        k(   43) = (   0.4000000   0.0000000   0.2222222), wk =   0.0063492
        k(   44) = (   0.4000000   0.0000000   0.3333333), wk =   0.0063492
        k(   45) = (   0.4000000   0.0000000   0.4444444), wk =   0.0063492
        k(   46) = (   0.4000000   0.1428571   0.0000000), wk =   0.0126984
        k(   47) = (   0.4000000   0.1428571   0.1111111), wk =   0.0126984
        k(   48) = (   0.4000000   0.1428571   0.2222222), wk =   0.0126984
        k(   49) = (   0.4000000   0.1428571   0.3333333), wk =   0.0126984
        k(   50) = (   0.4000000   0.1428571   0.4444444), wk =   0.0126984
        k(   51) = (   0.4000000   0.2857143   0.0000000), wk =   0.0126984
        k(   52) = (   0.4000000   0.2857143   0.1111111), wk =   0.0126984
        k(   53) = (   0.4000000   0.2857143   0.2222222), wk =   0.0126984
        k(   54) = (   0.4000000   0.2857143   0.3333333), wk =   0.0126984
        k(   55) = (   0.4000000   0.2857143   0.4444444), wk =   0.0126984
        k(   56) = (   0.4000000   0.4285714   0.0000000), wk =   0.0126984
        k(   57) = (   0.4000000   0.4285714   0.1111111), wk =   0.0126984
        k(   58) = (   0.4000000   0.4285714   0.2222222), wk =   0.0126984
        k(   59) = (   0.4000000   0.4285714   0.3333333), wk =   0.0126984
        k(   60) = (   0.4000000   0.4285714   0.4444444), wk =   0.0126984
        k(   61) = (  -0.2000000   0.0000000   0.1111111), wk =   0.0063492
        k(   62) = (  -0.2000000   0.0000000   0.2222222), wk =   0.0063492
        k(   63) = (  -0.2000000   0.0000000   0.3333333), wk =   0.0063492
        k(   64) = (  -0.2000000   0.0000000   0.4444444), wk =   0.0063492
        k(   65) = (  -0.2000000  -0.1428571   0.1111111), wk =   0.0126984
        k(   66) = (  -0.2000000  -0.1428571   0.2222222), wk =   0.0126984
        k(   67) = (  -0.2000000  -0.1428571   0.3333333), wk =   0.0126984
        k(   68) = (  -0.2000000  -0.1428571   0.4444444), wk =   0.0126984
        k(   69) = (  -0.2000000  -0.2857143   0.1111111), wk =   0.0126984
        k(   70) = (  -0.2000000  -0.2857143   0.2222222), wk =   0.0126984
        k(   71) = (  -0.2000000  -0.2857143   0.3333333), wk =   0.0126984
        k(   72) = (  -0.2000000  -0.2857143   0.4444444), wk =   0.0126984
        k(   73) = (  -0.2000000  -0.4285714   0.1111111), wk =   0.0126984
        k(   74) = (  -0.2000000  -0.4285714   0.2222222), wk =   0.0126984
        k(   75) = (  -0.2000000  -0.4285714   0.3333333), wk =   0.0126984
        k(   76) = (  -0.2000000  -0.4285714   0.4444444), wk =   0.0126984
        k(   77) = (  -0.4000000   0.0000000   0.1111111), wk =   0.0063492
        k(   78) = (  -0.4000000   0.0000000   0.2222222), wk =   0.0063492
        k(   79) = (  -0.4000000   0.0000000   0.3333333), wk =   0.0063492
        k(   80) = (  -0.4000000   0.0000000   0.4444444), wk =   0.0063492
        k(   81) = (  -0.4000000  -0.1428571   0.1111111), wk =   0.0126984
        k(   82) = (  -0.4000000  -0.1428571   0.2222222), wk =   0.0126984
        k(   83) = (  -0.4000000  -0.1428571   0.3333333), wk =   0.0126984
        k(   84) = (  -0.4000000  -0.1428571   0.4444444), wk =   0.0126984
        k(   85) = (  -0.4000000  -0.2857143   0.1111111), wk =   0.0126984
        k(   86) = (  -0.4000000  -0.2857143   0.2222222), wk =   0.0126984
        k(   87) = (  -0.4000000  -0.2857143   0.3333333), wk =   0.0126984
        k(   88) = (  -0.4000000  -0.2857143   0.4444444), wk =   0.0126984
        k(   89) = (  -0.4000000  -0.4285714   0.1111111), wk =   0.0126984
        k(   90) = (  -0.4000000  -0.4285714   0.2222222), wk =   0.0126984
        k(   91) = (  -0.4000000  -0.4285714   0.3333333), wk =   0.0126984
        k(   92) = (  -0.4000000  -0.4285714   0.4444444), wk =   0.0126984

     Dense  grid:  1110111 G-vectors     FFT dimensions: ( 200, 120,  96)

     Smooth grid:   250361 G-vectors     FFT dimensions: ( 120,  72,  60)

     Dynamical RAM for                 wfc:       5.17 MB

     Dynamical RAM for     wfc (w. buffer):     956.33 MB

     Dynamical RAM for           str. fact:       5.65 MB

     Dynamical RAM for           local pot:       0.00 MB

     Dynamical RAM for          nlocal pot:      12.09 MB

     Dynamical RAM for                qrad:      10.54 MB

     Dynamical RAM for          rho,v,vnew:      17.26 MB

     Dynamical RAM for               rhoin:       5.75 MB

     Dynamical RAM for            rho*nmix:      45.17 MB

     Dynamical RAM for           G-vectors:       5.45 MB

     Dynamical RAM for          h,s,v(r/c):       3.09 MB

     Dynamical RAM for          <psi|beta>:       0.60 MB

     Dynamical RAM for                 psi:      10.34 MB

     Dynamical RAM for                hpsi:      10.34 MB

     Dynamical RAM for                spsi:      10.34 MB

     Dynamical RAM for      wfcinit/wfcrot:      12.62 MB

     Dynamical RAM for           addusdens:     286.55 MB

     Dynamical RAM for          addusforce:     329.02 MB

     Dynamical RAM for         addusstress:     285.84 MB

     Estimated static dynamical RAM per process >       1.05 GB

     Estimated max dynamical RAM per process >       1.37 GB

     Estimated total dynamical RAM >      16.44 GB

     Check: negative core charge=   -0.000003
     Generating pointlists ...
     new r_m :   0.0823 (alat units)  1.5381 (a.u.) for type    1
     new r_m :   0.0915 (alat units)  1.7088 (a.u.) for type    2
     new r_m :   0.0608 (alat units)  1.1358 (a.u.) for type    3
     new r_m :   0.0608 (alat units)  1.1358 (a.u.) for type    4

     Initial potential from superposition of free atoms

     starting charge  215.97252, renormalised to  216.00000
     Starting wfcs are  152 randomized atomic wfcs
     Checking if some PAW data can be deallocated... 
       PAW data deallocated on   10 nodes for type:  1
       PAW data deallocated on    4 nodes for type:  3

     total cpu time spent up to now is     1611.8 secs

     Self-consistent Calculation

     iteration #  1     ecut=   100.00 Ry     beta= 0.40
     Davidson diagonalization with overlap
     ethr =  1.00E-02,  avg # of iterations =  4.2

     total cpu time spent up to now is     6410.4 secs

     total energy              =   -2380.29023329 Ry
     estimated scf accuracy    <       5.79367617 Ry

     total magnetization       =    16.00 Bohr mag/cell
     absolute magnetization    =    16.01 Bohr mag/cell

     iteration #  2     ecut=   100.00 Ry     beta= 0.40
     Davidson diagonalization with overlap
     ethr =  2.68E-03,  avg # of iterations =  2.0

     negative rho (up, down):  0.000E+00 1.003E-04

     total cpu time spent up to now is    10736.0 secs

     total energy              =   -2381.56155202 Ry
     estimated scf accuracy    <       0.41941849 Ry

     total magnetization       =    16.00 Bohr mag/cell
     absolute magnetization    =    16.01 Bohr mag/cell

     iteration #  3     ecut=   100.00 Ry     beta= 0.40
     Davidson diagonalization with overlap
     ethr =  1.94E-04,  avg # of iterations =  7.7

     negative rho (up, down):  0.000E+00 1.209E-04

     total cpu time spent up to now is    15825.4 secs

     total energy              =   -2381.55172284 Ry
     estimated scf accuracy    <       3.01694936 Ry

     total magnetization       =    16.12 Bohr mag/cell
     absolute magnetization    =    16.17 Bohr mag/cell

     iteration #  4     ecut=   100.00 Ry     beta= 0.40
     Davidson diagonalization with overlap
     ethr =  1.94E-04,  avg # of iterations =  2.0

     negative rho (up, down):  0.000E+00 2.708E-04

     total cpu time spent up to now is    19557.5 secs

     total energy              =   -2381.60949559 Ry
     estimated scf accuracy    <       1.56442858 Ry

     total magnetization       =    16.00 Bohr mag/cell
     absolute magnetization    =    16.08 Bohr mag/cell

     iteration #  5     ecut=   100.00 Ry     beta= 0.40
     Davidson diagonalization with overlap
     ethr =  1.94E-04,  avg # of iterations =  1.5

     negative rho (up, down):  0.000E+00 4.860E-04

     total cpu time spent up to now is    23094.1 secs

     total energy              =   -2381.61298842 Ry
     estimated scf accuracy    <       1.51042760 Ry

     total magnetization       =    16.00 Bohr mag/cell
     absolute magnetization    =    16.07 Bohr mag/cell

     iteration #  6     ecut=   100.00 Ry     beta= 0.40
     Davidson diagonalization with overlap
     ethr =  1.94E-04,  avg # of iterations =  2.0

     negative rho (up, down):  0.000E+00 5.044E-04

     total cpu time spent up to now is    26676.0 secs

     total energy              =   -2381.65281336 Ry
     estimated scf accuracy    <       1.79367353 Ry

     total magnetization       =    16.00 Bohr mag/cell
     absolute magnetization    =    16.09 Bohr mag/cell

     iteration #  7     ecut=   100.00 Ry     beta= 0.40
     Davidson diagonalization with overlap
     ethr =  1.94E-04,  avg # of iterations =  1.0

     negative rho (up, down):  0.000E+00 5.075E-04

     total cpu time spent up to now is    30110.8 secs

     total energy              =   -2381.71809965 Ry
     estimated scf accuracy    <       0.29994279 Ry

     total magnetization       =    16.00 Bohr mag/cell
     absolute magnetization    =    16.08 Bohr mag/cell

     iteration #  8     ecut=   100.00 Ry     beta= 0.40
     Davidson diagonalization with overlap
     ethr =  1.39E-04,  avg # of iterations =  1.0

     negative rho (up, down):  0.000E+00 5.070E-04

     total cpu time spent up to now is    33556.0 secs

     total energy              =   -2381.70726804 Ry
     estimated scf accuracy    <       0.62227124 Ry

     total magnetization       =    16.00 Bohr mag/cell
     absolute magnetization    =    16.08 Bohr mag/cell

     iteration #  9     ecut=   100.00 Ry     beta= 0.40
     Davidson diagonalization with overlap
     ethr =  1.39E-04,  avg # of iterations =  1.0

     negative rho (up, down):  0.000E+00 5.050E-04

     total cpu time spent up to now is    36992.7 secs

     total energy              =   -2381.71074422 Ry
     estimated scf accuracy    <       0.10078974 Ry

     total magnetization       =    16.00 Bohr mag/cell
     absolute magnetization    =    16.08 Bohr mag/cell

     iteration # 10     ecut=   100.00 Ry     beta= 0.40
     Davidson diagonalization with overlap
     ethr =  4.67E-05,  avg # of iterations =  1.2

     negative rho (up, down):  0.000E+00 5.072E-04

     total cpu time spent up to now is    40442.4 secs

     total energy              =   -2381.71242755 Ry
     estimated scf accuracy    <       0.03889491 Ry

     total magnetization       =    16.00 Bohr mag/cell
     absolute magnetization    =    16.08 Bohr mag/cell

     iteration # 11     ecut=   100.00 Ry     beta= 0.40
     Davidson diagonalization with overlap
     c_bands:  1 eigenvalues not converged
     ethr =  1.80E-05,  avg # of iterations =  1.3

     negative rho (up, down):  0.000E+00 5.056E-04

     total cpu time spent up to now is    43914.8 secs

     total energy              =   -2381.71298895 Ry
     estimated scf accuracy    <       0.03520708 Ry

     total magnetization       =    16.00 Bohr mag/cell
     absolute magnetization    =    16.08 Bohr mag/cell

     iteration # 12     ecut=   100.00 Ry     beta= 0.40
     Davidson diagonalization with overlap
     ethr =  1.63E-05,  avg # of iterations =  1.1

     negative rho (up, down):  0.000E+00 5.096E-04

     total cpu time spent up to now is    47362.7 secs

     total energy              =   -2381.71306466 Ry
     estimated scf accuracy    <       0.03376675 Ry

     total magnetization       =    16.00 Bohr mag/cell
     absolute magnetization    =    16.08 Bohr mag/cell

     iteration # 13     ecut=   100.00 Ry     beta= 0.40
     Davidson diagonalization with overlap
     ethr =  1.56E-05,  avg # of iterations =  1.1

     negative rho (up, down):  0.000E+00 5.013E-04

     total cpu time spent up to now is    50812.5 secs

     total energy              =   -2381.71343764 Ry
     estimated scf accuracy    <       0.03881082 Ry

     total magnetization       =    16.00 Bohr mag/cell
     absolute magnetization    =    16.08 Bohr mag/cell

     iteration # 14     ecut=   100.00 Ry     beta= 0.40
     Davidson diagonalization with overlap
     ethr =  1.56E-05,  avg # of iterations =  1.0

     negative rho (up, down):  0.000E+00 5.027E-04

     total cpu time spent up to now is    54264.5 secs

     total energy              =   -2381.71392564 Ry
     estimated scf accuracy    <       0.04255852 Ry

     total magnetization       =    16.00 Bohr mag/cell
     absolute magnetization    =    16.08 Bohr mag/cell

     iteration # 15     ecut=   100.00 Ry     beta= 0.40
     Davidson diagonalization with overlap
     ethr =  1.56E-05,  avg # of iterations =  1.0

     negative rho (up, down):  0.000E+00 5.263E-04

     total cpu time spent up to now is    57714.4 secs

     total energy              =   -2381.71117187 Ry
     estimated scf accuracy    <       0.03903987 Ry

     total magnetization       =    16.00 Bohr mag/cell
     absolute magnetization    =    16.08 Bohr mag/cell

     iteration # 16     ecut=   100.00 Ry     beta= 0.40
     Davidson diagonalization with overlap
     ethr =  1.56E-05,  avg # of iterations =  2.0

     negative rho (up, down):  0.000E+00 4.866E-04

     total cpu time spent up to now is    61389.9 secs

     total energy              =   -2381.71590461 Ry
     estimated scf accuracy    <       0.03268309 Ry

     total magnetization       =    16.00 Bohr mag/cell
     absolute magnetization    =    16.09 Bohr mag/cell

     iteration # 17     ecut=   100.00 Ry     beta= 0.40
     Davidson diagonalization with overlap
     ethr =  1.51E-05,  avg # of iterations =  1.0

     negative rho (up, down):  0.000E+00 4.437E-04

     total cpu time spent up to now is    64842.9 secs

     total energy              =   -2381.71985313 Ry
     estimated scf accuracy    <       0.02642807 Ry

     total magnetization       =    16.00 Bohr mag/cell
     absolute magnetization    =    16.09 Bohr mag/cell

     iteration # 18     ecut=   100.00 Ry     beta= 0.40
     Davidson diagonalization with overlap
     ethr =  1.22E-05,  avg # of iterations =  2.0

     negative rho (up, down):  0.000E+00 3.978E-04

     total cpu time spent up to now is    68474.7 secs

     total energy              =   -2381.72135143 Ry
     estimated scf accuracy    <       0.01221895 Ry

     total magnetization       =    16.00 Bohr mag/cell
     absolute magnetization    =    16.09 Bohr mag/cell

     iteration # 19     ecut=   100.00 Ry     beta= 0.40
     Davidson diagonalization with overlap
     c_bands:  1 eigenvalues not converged
     c_bands:  1 eigenvalues not converged
     c_bands:  1 eigenvalues not converged
     c_bands:  1 eigenvalues not converged
     ethr =  5.66E-06,  avg # of iterations =  4.9

     negative rho (up, down):  0.000E+00 4.220E-04

     total cpu time spent up to now is    72561.1 secs

     total energy              =   -2381.72434394 Ry
     estimated scf accuracy    <       0.00298079 Ry

     total magnetization       =    16.00 Bohr mag/cell
     absolute magnetization    =    16.10 Bohr mag/cell

     iteration # 20     ecut=   100.00 Ry     beta= 0.40
     Davidson diagonalization with overlap
     c_bands:  1 eigenvalues not converged
     c_bands:  2 eigenvalues not converged
     c_bands:  1 eigenvalues not converged
     c_bands:  1 eigenvalues not converged
     c_bands:  2 eigenvalues not converged
     c_bands:  1 eigenvalues not converged
     c_bands:  1 eigenvalues not converged
     c_bands:  2 eigenvalues not converged
     c_bands:  1 eigenvalues not converged
     c_bands:  1 eigenvalues not converged
     c_bands:  1 eigenvalues not converged
     c_bands:  1 eigenvalues not converged
     c_bands:  2 eigenvalues not converged
     c_bands:  1 eigenvalues not converged
     c_bands:  1 eigenvalues not converged
     c_bands:  2 eigenvalues not converged
     ethr =  1.38E-06,  avg # of iterations =  6.8

     negative rho (up, down):  0.000E+00 4.398E-04

     total cpu time spent up to now is    76514.5 secs

     total energy              =   -2381.72460122 Ry
     estimated scf accuracy    <       0.00090584 Ry

     total magnetization       =    16.00 Bohr mag/cell
     absolute magnetization    =    16.10 Bohr mag/cell

     iteration # 21     ecut=   100.00 Ry     beta= 0.40
     Davidson diagonalization with overlap
     c_bands:  1 eigenvalues not converged
     c_bands:  1 eigenvalues not converged
     ethr =  4.19E-07,  avg # of iterations =  2.0

     negative rho (up, down):  0.000E+00 4.373E-04

     total cpu time spent up to now is    80098.1 secs

     total energy              =   -2381.72468785 Ry
     estimated scf accuracy    <       0.00015003 Ry

     total magnetization       =    16.00 Bohr mag/cell
     absolute magnetization    =    16.10 Bohr mag/cell

     iteration # 22     ecut=   100.00 Ry     beta= 0.40
     Davidson diagonalization with overlap
     c_bands:  1 eigenvalues not converged
     c_bands:  1 eigenvalues not converged
     ethr =  6.95E-08,  avg # of iterations =  4.1

     negative rho (up, down):  0.000E+00 4.456E-04

     total cpu time spent up to now is    84395.0 secs

     total energy              =   -2381.72470857 Ry
     estimated scf accuracy    <       0.00008992 Ry

     total magnetization       =    16.00 Bohr mag/cell
     absolute magnetization    =    16.10 Bohr mag/cell

     iteration # 23     ecut=   100.00 Ry     beta= 0.40
     Davidson diagonalization with overlap
     ethr =  4.16E-08,  avg # of iterations =  2.1

     negative rho (up, down):  0.000E+00 4.443E-04

     total cpu time spent up to now is    88466.8 secs

     total energy              =   -2381.72474348 Ry
     estimated scf accuracy    <       0.00019151 Ry

     total magnetization       =    16.00 Bohr mag/cell
     absolute magnetization    =    16.10 Bohr mag/cell

     iteration # 24     ecut=   100.00 Ry     beta= 0.40
     Davidson diagonalization with overlap
     ethr =  4.16E-08,  avg # of iterations =  2.1

     negative rho (up, down):  0.000E+00 4.465E-04

     total cpu time spent up to now is    92367.2 secs

     total energy              =   -2381.72478658 Ry
     estimated scf accuracy    <       0.00005969 Ry

     total magnetization       =    16.00 Bohr mag/cell
     absolute magnetization    =    16.10 Bohr mag/cell

     iteration # 25     ecut=   100.00 Ry     beta= 0.40
     Davidson diagonalization with overlap
     ethr =  2.76E-08,  avg # of iterations =  1.9

     negative rho (up, down):  0.000E+00 4.475E-04

     total cpu time spent up to now is    96026.2 secs

     total energy              =   -2381.72479927 Ry
     estimated scf accuracy    <       0.00004835 Ry

     total magnetization       =    16.00 Bohr mag/cell
     absolute magnetization    =    16.10 Bohr mag/cell

     iteration # 26     ecut=   100.00 Ry     beta= 0.40
     Davidson diagonalization with overlap
     ethr =  2.24E-08,  avg # of iterations =  2.0

     negative rho (up, down):  0.000E+00 4.437E-04

     total cpu time spent up to now is    99870.9 secs

     total energy              =   -2381.72468735 Ry
     estimated scf accuracy    <       0.00003290 Ry

     total magnetization       =    16.00 Bohr mag/cell
     absolute magnetization    =    16.09 Bohr mag/cell

     iteration # 27     ecut=   100.00 Ry     beta= 0.40
     Davidson diagonalization with overlap
     ethr =  1.52E-08,  avg # of iterations =  3.5

     negative rho (up, down):  0.000E+00 4.399E-04

     total cpu time spent up to now is   104497.1 secs

     total energy              =   -2381.72484612 Ry
     estimated scf accuracy    <       0.00000906 Ry

     total magnetization       =    16.00 Bohr mag/cell
     absolute magnetization    =    16.09 Bohr mag/cell

     iteration # 28     ecut=   100.00 Ry     beta= 0.40
     Davidson diagonalization with overlap
     ethr =  4.19E-09,  avg # of iterations =  4.0

     negative rho (up, down):  0.000E+00 4.364E-04

     total cpu time spent up to now is   109353.6 secs

     total energy              =   -2381.72487163 Ry
     estimated scf accuracy    <       0.00000519 Ry

     total magnetization       =    16.00 Bohr mag/cell
     absolute magnetization    =    16.09 Bohr mag/cell

     iteration # 29     ecut=   100.00 Ry     beta= 0.40
     Davidson diagonalization with overlap
     ethr =  2.40E-09,  avg # of iterations =  4.0

     negative rho (up, down):  0.000E+00 4.345E-04

     total cpu time spent up to now is   114310.2 secs

     total energy              =   -2381.72493970 Ry
     estimated scf accuracy    <       0.00000320 Ry

     total magnetization       =    16.00 Bohr mag/cell
     absolute magnetization    =    16.09 Bohr mag/cell

     iteration # 30     ecut=   100.00 Ry     beta= 0.40
     Davidson diagonalization with overlap
     ethr =  1.48E-09,  avg # of iterations =  3.5

     negative rho (up, down):  0.000E+00 4.331E-04

     total cpu time spent up to now is   118953.6 secs

     total energy              =   -2381.72496132 Ry
     estimated scf accuracy    <       0.00000299 Ry

     total magnetization       =    16.00 Bohr mag/cell
     absolute magnetization    =    16.09 Bohr mag/cell

     iteration # 31     ecut=   100.00 Ry     beta= 0.40
     Davidson diagonalization with overlap
     ethr =  1.38E-09,  avg # of iterations =  2.5

     negative rho (up, down):  0.000E+00 4.339E-04

     total cpu time spent up to now is   123379.8 secs

     total energy              =   -2381.72497185 Ry
     estimated scf accuracy    <       0.00000176 Ry

     total magnetization       =    16.00 Bohr mag/cell
     absolute magnetization    =    16.09 Bohr mag/cell

     iteration # 32     ecut=   100.00 Ry     beta= 0.40
     Davidson diagonalization with overlap
     ethr =  8.17E-10,  avg # of iterations =  2.5

     negative rho (up, down):  0.000E+00 4.330E-04

     total cpu time spent up to now is   127759.7 secs

     total energy              =   -2381.72497360 Ry
     estimated scf accuracy    <       0.00000411 Ry

     total magnetization       =    16.00 Bohr mag/cell
     absolute magnetization    =    16.09 Bohr mag/cell

     iteration # 33     ecut=   100.00 Ry     beta= 0.40
     Davidson diagonalization with overlap
     ethr =  8.17E-10,  avg # of iterations =  2.5

     negative rho (up, down):  0.000E+00 4.322E-04

     total cpu time spent up to now is   132127.6 secs

     total energy              =   -2381.72496649 Ry
     estimated scf accuracy    <       0.00000160 Ry

     total magnetization       =    16.00 Bohr mag/cell
     absolute magnetization    =    16.09 Bohr mag/cell

     iteration # 34     ecut=   100.00 Ry     beta= 0.40
     Davidson diagonalization with overlap
     ethr =  7.39E-10,  avg # of iterations =  3.6

     negative rho (up, down):  0.000E+00 4.330E-04

     total cpu time spent up to now is   136818.1 secs

     total energy              =   -2381.72497911 Ry
     estimated scf accuracy    <       0.00000061 Ry

     total magnetization       =    16.00 Bohr mag/cell
     absolute magnetization    =    16.09 Bohr mag/cell

     iteration # 35     ecut=   100.00 Ry     beta= 0.40
     Davidson diagonalization with overlap
     ethr =  2.82E-10,  avg # of iterations =  3.7

     negative rho (up, down):  0.000E+00 4.329E-04

     total cpu time spent up to now is   141348.3 secs

     total energy              =   -2381.72498143 Ry
     estimated scf accuracy    <       0.00000057 Ry

     total magnetization       =    16.00 Bohr mag/cell
     absolute magnetization    =    16.09 Bohr mag/cell

     iteration # 36     ecut=   100.00 Ry     beta= 0.40
     Davidson diagonalization with overlap
     ethr =  2.64E-10,  avg # of iterations =  1.5

     negative rho (up, down):  0.000E+00 4.328E-04

     total cpu time spent up to now is   144889.1 secs

     total energy              =   -2381.72498162 Ry
     estimated scf accuracy    <       0.00000040 Ry

     total magnetization       =    16.00 Bohr mag/cell
     absolute magnetization    =    16.09 Bohr mag/cell

     iteration # 37     ecut=   100.00 Ry     beta= 0.40
     Davidson diagonalization with overlap
     ethr =  1.86E-10,  avg # of iterations =  2.0

     negative rho (up, down):  0.000E+00 4.328E-04

     total cpu time spent up to now is   148589.9 secs

     total energy              =   -2381.72498182 Ry
     estimated scf accuracy    <          3.4E-09 Ry

     total magnetization       =    16.00 Bohr mag/cell
     absolute magnetization    =    16.09 Bohr mag/cell

     iteration # 38     ecut=   100.00 Ry     beta= 0.40
     Davidson diagonalization with overlap
     c_bands:  1 eigenvalues not converged
     ethr =  1.56E-12,  avg # of iterations =  5.8

     negative rho (up, down):  0.000E+00 4.327E-04

     total cpu time spent up to now is   155149.1 secs

     total energy              =   -2381.72498186 Ry
     estimated scf accuracy    <          1.6E-09 Ry

     total magnetization       =    16.00 Bohr mag/cell
     absolute magnetization    =    16.09 Bohr mag/cell

     iteration # 39     ecut=   100.00 Ry     beta= 0.40
     Davidson diagonalization with overlap
     ethr =  7.32E-13,  avg # of iterations =  2.2

     negative rho (up, down):  0.000E+00 4.327E-04

     total cpu time spent up to now is   159471.2 secs

     total energy              =   -2381.72498187 Ry
     estimated scf accuracy    <          5.3E-10 Ry

     total magnetization       =    16.00 Bohr mag/cell
     absolute magnetization    =    16.09 Bohr mag/cell

     iteration # 40     ecut=   100.00 Ry     beta= 0.40
     Davidson diagonalization with overlap
     ethr =  2.48E-13,  avg # of iterations =  3.7

     negative rho (up, down):  0.000E+00 4.327E-04

     Magnetic moment per site:
     atom:    1    charge:    7.9288    magn:    0.0002    constr:    0.0000
     atom:    2    charge:    7.9288    magn:    0.0002    constr:    0.0000
     atom:    3    charge:    7.9288    magn:    0.0002    constr:    0.0000
     atom:    4    charge:    7.9288    magn:    0.0002    constr:    0.0000
     atom:    5    charge:   13.1735    magn:    3.2611    constr:    0.0000
     atom:    6    charge:   13.1735    magn:    3.2611    constr:    0.0000
     atom:    7    charge:   13.1735    magn:    3.2611    constr:    0.0000
     atom:    8    charge:   13.1735    magn:    3.2611    constr:    0.0000
     atom:    9    charge:    0.7947    magn:    0.0070    constr:    0.0000
     atom:   10    charge:    0.7947    magn:    0.0070    constr:    0.0000
     atom:   11    charge:    0.7947    magn:    0.0070    constr:    0.0000
     atom:   12    charge:    0.7947    magn:    0.0070    constr:    0.0000
     atom:   13    charge:    4.0668    magn:    0.0353    constr:    0.0000
     atom:   14    charge:    4.0668    magn:    0.0353    constr:    0.0000
     atom:   15    charge:    4.0668    magn:    0.0353    constr:    0.0000
     atom:   16    charge:    4.0668    magn:    0.0353    constr:    0.0000
     atom:   17    charge:    4.0708    magn:    0.0480    constr:    0.0000
     atom:   18    charge:    4.0708    magn:    0.0480    constr:    0.0000
     atom:   19    charge:    4.0707    magn:    0.0480    constr:    0.0000
     atom:   20    charge:    4.0708    magn:    0.0480    constr:    0.0000
     atom:   21    charge:    4.0623    magn:    0.0817    constr:    0.0000
     atom:   22    charge:    4.0624    magn:    0.0817    constr:    0.0000
     atom:   23    charge:    4.0623    magn:    0.0817    constr:    0.0000
     atom:   24    charge:    4.0623    magn:    0.0817    constr:    0.0000
     atom:   25    charge:    4.0624    magn:    0.0817    constr:    0.0000
     atom:   26    charge:    4.0623    magn:    0.0817    constr:    0.0000
     atom:   27    charge:    4.0623    magn:    0.0817    constr:    0.0000
     atom:   28    charge:    4.0623    magn:    0.0817    constr:    0.0000

     total cpu time spent up to now is   164044.4 secs

     End of self-consistent calculation

 ------ SPIN UP ------------


          k = 0.0000 0.0000 0.0000 ( 31277 PWs)   bands (ev):

   -78.5975 -78.5971 -78.5958 -78.5953 -45.3795 -45.3778 -45.3774 -45.3757
   -44.7312 -44.7308 -44.7296 -44.7289 -43.9012 -43.8998 -43.8995 -43.8980
   -40.8678 -40.8677 -40.8520 -40.8519 -14.0182 -13.9549 -13.9133 -13.7279
   -13.0521 -13.0491 -13.0282 -12.9929 -12.9726 -12.9639 -12.8460 -12.8459
   -12.8219 -12.8212 -12.6533 -12.6096 -10.7221 -10.7006 -10.6386 -10.6306
   -10.6248 -10.5906 -10.5016 -10.4379 -10.4347 -10.3841 -10.3823 -10.2986
    -0.4400   0.1273   0.3600   0.3830   0.7225   1.2939   1.2968   1.4827
     1.5716   1.7470   2.1657   2.1729   2.1855   2.2210   2.2310   2.6698
     3.2582   3.4818   3.8211   3.9073   4.0322   4.1623   4.1996   4.3344
     4.4424   4.4443   4.4994   4.8520   4.9604   4.9678   4.9997   5.1558
     5.2260   5.3019   5.3345   5.3439   5.4897   5.6086   5.8638   5.9041
     5.9598   6.0275   6.0694   6.4638   6.5706   6.7985   6.9907   7.2579
     7.7885   7.7901   7.8361   8.1069   8.1519   8.2324   8.2605   8.3183
     8.7148   8.8676   8.8968   8.9907   9.0376   9.0921   9.2006   9.6380
     9.6712   9.7150   9.8552   9.9182  13.4850  15.5163  15.5525  15.9029
    16.5292  16.5427  17.2858  17.9835  18.3250  18.4170  18.4294  18.5490
    18.5700  18.6466

     occupation numbers 
     1.0000   1.0000   1.0000   1.0000   1.0000   1.0000   1.0000   1.0000
     1.0000   1.0000   1.0000   1.0000   1.0000   1.0000   1.0000   1.0000
     1.0000   1.0000   1.0000   1.0000   1.0000   1.0000   1.0000   1.0000
     1.0000   1.0000   1.0000   1.0000   1.0000   1.0000   1.0000   1.0000
     1.0000   1.0000   1.0000   1.0000   1.0000   1.0000   1.0000   1.0000
     1.0000   1.0000   1.0000   1.0000   1.0000   1.0000   1.0000   1.0000
     1.0000   1.0000   1.0000   1.0000   1.0000   1.0000   1.0000   1.0000
     1.0000   1.0000   1.0000   1.0000   1.0000   1.0000   1.0000   1.0000
     1.0000   1.0000   1.0000   1.0000   1.0000   1.0000   1.0000   1.0000
     1.0000   1.0000   1.0000   1.0000   1.0000   1.0000   1.0000   1.0000
     1.0000   1.0000   1.0000   1.0000   1.0000   1.0000   1.0000   1.0000
     1.0000   1.0000   1.0000   1.0000   1.0000   1.0000   1.0000   1.0000
     1.0000   1.0000   1.0000   1.0000   1.0000   1.0000   1.0000   1.0000
     1.0000   1.0000   1.0000   1.0000   1.0000   1.0000   1.0000   1.0000
     1.0000   1.0000   1.0000   1.0000   0.0000   0.0000   0.0000   0.0000
     0.0000   0.0000   0.0000   0.0000   0.0000   0.0000   0.0000   0.0000
     0.0000   0.0000

          k = 0.0000 0.0000 0.2337 ( 31269 PWs)   bands (ev):

   -78.5975 -78.5971 -78.5958 -78.5953 -45.3794 -45.3777 -45.3775 -45.3758
   -44.7312 -44.7308 -44.7296 -44.7289 -43.9011 -43.8998 -43.8994 -43.8981
   -40.8678 -40.8677 -40.8520 -40.8519 -14.0337 -13.9213 -13.9159 -13.7318
   -13.0425 -13.0281 -13.0050 -12.9794 -12.9730 -12.9649 -12.8463 -12.8461
   -12.8219 -12.8212 -12.6769 -12.6396 -10.7117 -10.7097 -10.6728 -10.6499
   -10.6186 -10.5866 -10.5040 -10.4289 -10.4256 -10.3930 -10.3924 -10.3116
    -0.4160   0.1173   0.3295   0.4239   0.8124   1.3021   1.3788   1.5540
     1.5703   1.7707   2.1573   2.1823   2.1833   2.1965   2.2142   2.6457
     3.2619   3.4735   3.8088   3.8521   4.0563   4.0949   4.2081   4.2581
     4.3524   4.4031   4.5537   4.7977   4.8899   4.9505   5.0353   5.1150
     5.2059   5.2208   5.4391   5.4640   5.5652   5.6176   5.7858   5.8981
     5.9368   6.0710   6.1404   6.4826   6.5701   6.8323   6.9838   7.2372
     7.7804   7.7805   7.8438   8.1028   8.1361   8.2026   8.2385   8.2749
     8.7454   8.8905   8.9355   8.9944   9.0753   9.1062   9.2080   9.6119
     9.6502   9.6803   9.8679   9.9112  13.6259  15.5056  15.6458  15.8809
    16.5407  16.5789  17.4143  17.9315  17.9754  18.1070  18.1767  18.2938
    18.7827  18.9020

     occupation numbers 
     1.0000   1.0000   1.0000   1.0000   1.0000   1.0000   1.0000   1.0000
     1.0000   1.0000   1.0000   1.0000   1.0000   1.0000   1.0000   1.0000
     1.0000   1.0000   1.0000   1.0000   1.0000   1.0000   1.0000   1.0000
     1.0000   1.0000   1.0000   1.0000   1.0000   1.0000   1.0000   1.0000
     1.0000   1.0000   1.0000   1.0000   1.0000   1.0000   1.0000   1.0000
     1.0000   1.0000   1.0000   1.0000   1.0000   1.0000   1.0000   1.0000
     1.0000   1.0000   1.0000   1.0000   1.0000   1.0000   1.0000   1.0000
     1.0000   1.0000   1.0000   1.0000   1.0000   1.0000   1.0000   1.0000
     1.0000   1.0000   1.0000   1.0000   1.0000   1.0000   1.0000   1.0000
     1.0000   1.0000   1.0000   1.0000   1.0000   1.0000   1.0000   1.0000
     1.0000   1.0000   1.0000   1.0000   1.0000   1.0000   1.0000   1.0000
     1.0000   1.0000   1.0000   1.0000   1.0000   1.0000   1.0000   1.0000
     1.0000   1.0000   1.0000   1.0000   1.0000   1.0000   1.0000   1.0000
     1.0000   1.0000   1.0000   1.0000   1.0000   1.0000   1.0000   1.0000
     1.0000   1.0000   1.0000   1.0000   0.0000   0.0000   0.0000   0.0000
     0.0000   0.0000   0.0000   0.0000   0.0000   0.0000   0.0000   0.0000
     0.0000   0.0000

          k = 0.0000 0.0000 0.4675 ( 31276 PWs)   bands (ev):

   -78.5975 -78.5971 -78.5958 -78.5953 -45.3792 -45.3776 -45.3775 -45.3759
   -44.7312 -44.7308 -44.7296 -44.7289 -43.9011 -43.8999 -43.8993 -43.8982
   -40.8678 -40.8677 -40.8519 -40.8519 -14.0599 -13.9473 -13.8360 -13.7002
   -13.0459 -13.0219 -12.9740 -12.9675 -12.9444 -12.9318 -12.8470 -12.8466
   -12.8218 -12.8212 -12.7243 -12.6916 -10.7520 -10.7329 -10.6824 -10.6811
   -10.6037 -10.5751 -10.5118 -10.5108 -10.4274 -10.4183 -10.3388 -10.3243
    -0.3450   0.1076   0.2750   0.4423   1.0881   1.3582   1.5639   1.5751
     1.7422   1.8326   2.0791   2.1450   2.1499   2.2346   2.2715   2.5706
     3.2682   3.4505   3.7245   3.7769   3.9579   4.0997   4.1425   4.1671
     4.2006   4.3070   4.6268   4.7311   4.7901   4.8674   4.8793   5.0223
     5.0828   5.1476   5.5595   5.5845   5.7059   5.7390   5.8132   5.9282
     5.9502   6.1437   6.1993   6.5515   6.5605   6.9290   6.9537   7.1975
     7.7550   7.7704   7.8651   8.0619   8.0854   8.1207   8.1812   8.2461
     8.8324   8.9596   9.0031   9.0062   9.1318   9.1389   9.2572   9.5368
     9.5875   9.6145   9.8801   9.8937  13.9962  15.5061  15.7537  15.9696
    16.6093  16.6208  17.3241  17.6084  17.8502  17.9015  17.9449  18.0152
    18.6226  18.7924

     occupation numbers 
     1.0000   1.0000   1.0000   1.0000   1.0000   1.0000   1.0000   1.0000
     1.0000   1.0000   1.0000   1.0000   1.0000   1.0000   1.0000   1.0000
     1.0000   1.0000   1.0000   1.0000   1.0000   1.0000   1.0000   1.0000
     1.0000   1.0000   1.0000   1.0000   1.0000   1.0000   1.0000   1.0000
     1.0000   1.0000   1.0000   1.0000   1.0000   1.0000   1.0000   1.0000
     1.0000   1.0000   1.0000   1.0000   1.0000   1.0000   1.0000   1.0000
     1.0000   1.0000   1.0000   1.0000   1.0000   1.0000   1.0000   1.0000
     1.0000   1.0000   1.0000   1.0000   1.0000   1.0000   1.0000   1.0000
     1.0000   1.0000   1.0000   1.0000   1.0000   1.0000   1.0000   1.0000
     1.0000   1.0000   1.0000   1.0000   1.0000   1.0000   1.0000   1.0000
     1.0000   1.0000   1.0000   1.0000   1.0000   1.0000   1.0000   1.0000
     1.0000   1.0000   1.0000   1.0000   1.0000   1.0000   1.0000   1.0000
     1.0000   1.0000   1.0000   1.0000   1.0000   1.0000   1.0000   1.0000
     1.0000   1.0000   1.0000   1.0000   1.0000   1.0000   1.0000   1.0000
     1.0000   1.0000   1.0000   1.0000   0.0000   0.0000   0.0000   0.0000
     0.0000   0.0000   0.0000   0.0000   0.0000   0.0000   0.0000   0.0000
     0.0000   0.0000

          k = 0.0000 0.0000 0.7012 ( 31286 PWs)   bands (ev):

   -78.5975 -78.5971 -78.5958 -78.5953 -45.3790 -45.3779 -45.3773 -45.3762
   -44.7311 -44.7308 -44.7296 -44.7289 -43.9009 -43.9001 -43.8992 -43.8984
   -40.8678 -40.8677 -40.8519 -40.8519 -14.0783 -14.0033 -13.7135 -13.6171
   -13.0741 -13.0646 -12.9749 -12.9708 -12.9473 -12.9374 -12.8475 -12.8472
   -12.8216 -12.8212 -12.7074 -12.6658 -10.8189 -10.7873 -10.7032 -10.6396
   -10.6374 -10.5603 -10.5568 -10.5265 -10.4581 -10.4560 -10.3064 -10.2956
    -0.2308   0.1260   0.1882   0.3784   1.4675   1.5203   1.6052   1.7061
     1.9015   1.9361   1.9756   2.0636   2.1561   2.3900   2.4497   2.4528
     3.2533   3.4361   3.5693   3.7592   3.7703   3.9040   4.0642   4.1532
     4.1799   4.2430   4.2903   4.6892   4.7061   4.7297   4.8659   4.9190
     5.0309   5.1321   5.4446   5.4622   5.8626   5.9858   5.9980   6.0232
     6.0673   6.2047   6.2738   6.5221   6.5866   6.8735   7.0670   7.2002
     7.7286   7.7818   7.8991   7.9644   7.9741   8.0849   8.1354   8.2381
     8.9622   9.0239   9.0410   9.0706   9.1644   9.1691   9.3513   9.4206
     9.4863   9.5552   9.8758   9.8785  14.4838  15.5827  15.6650  16.1522
    16.5637  16.6953  17.1064  17.4478  17.7384  17.7454  17.8822  17.9316
    18.3862  18.7407

     occupation numbers 
     1.0000   1.0000   1.0000   1.0000   1.0000   1.0000   1.0000   1.0000
     1.0000   1.0000   1.0000   1.0000   1.0000   1.0000   1.0000   1.0000
     1.0000   1.0000   1.0000   1.0000   1.0000   1.0000   1.0000   1.0000
     1.0000   1.0000   1.0000   1.0000   1.0000   1.0000   1.0000   1.0000
     1.0000   1.0000   1.0000   1.0000   1.0000   1.0000   1.0000   1.0000
     1.0000   1.0000   1.0000   1.0000   1.0000   1.0000   1.0000   1.0000
     1.0000   1.0000   1.0000   1.0000   1.0000   1.0000   1.0000   1.0000
     1.0000   1.0000   1.0000   1.0000   1.0000   1.0000   1.0000   1.0000
     1.0000   1.0000   1.0000   1.0000   1.0000   1.0000   1.0000   1.0000
     1.0000   1.0000   1.0000   1.0000   1.0000   1.0000   1.0000   1.0000
     1.0000   1.0000   1.0000   1.0000   1.0000   1.0000   1.0000   1.0000
     1.0000   1.0000   1.0000   1.0000   1.0000   1.0000   1.0000   1.0000
     1.0000   1.0000   1.0000   1.0000   1.0000   1.0000   1.0000   1.0000
     1.0000   1.0000   1.0000   1.0000   1.0000   1.0000   1.0000   1.0000
     1.0000   1.0000   1.0000   1.0000   0.0000   0.0000   0.0000   0.0000
     0.0000   0.0000   0.0000   0.0000   0.0000   0.0000   0.0000   0.0000
     0.0000   0.0000

          k = 0.0000 0.0000 0.9349 ( 31288 PWs)   bands (ev):

   -78.5975 -78.5971 -78.5958 -78.5953 -45.3787 -45.3781 -45.3770 -45.3765
   -44.7311 -44.7308 -44.7296 -44.7289 -43.9008 -43.9002 -43.8991 -43.8985
   -40.8678 -40.8677 -40.8519 -40.8519 -14.0773 -14.0515 -13.5859 -13.5434
   -13.1498 -13.1414 -12.9750 -12.9736 -12.9640 -12.9606 -12.8478 -12.8476
   -12.8213 -12.8212 -12.6413 -12.6222 -10.8572 -10.8371 -10.7165 -10.7032
   -10.5918 -10.5518 -10.5324 -10.5319 -10.4979 -10.4965 -10.2840 -10.2775
    -0.0855   0.0648   0.1815   0.2719   1.6357   1.6765   1.7268   1.7918
     1.8402   1.9507   2.0245   2.1359   2.2121   2.3167   2.6269   2.6692
     3.2233   3.3534   3.4758   3.5820   3.7173   3.7962   3.8292   3.9413
     4.1849   4.2222   4.3200   4.4838   4.7043   4.7077   4.8420   4.8442
     5.1130   5.2065   5.2904   5.3151   5.9610   6.0165   6.0638   6.1110
     6.2815   6.3110   6.4373   6.4518   6.5307   6.7234   7.1908   7.2360
     7.7442   7.8224   7.8402   7.8870   7.9449   8.0053   8.1691   8.2090
     9.0395   9.0470   9.1163   9.1838   9.1845   9.2095   9.2753   9.3550
     9.4390   9.5035   9.8675   9.8706  14.9846  15.4147  15.7500  15.9578
    16.7285  16.7452  17.0946  17.2359  17.7249  17.7273  17.7940  17.9000
    18.3787  18.6113

     occupation numbers 
     1.0000   1.0000   1.0000   1.0000   1.0000   1.0000   1.0000   1.0000
     1.0000   1.0000   1.0000   1.0000   1.0000   1.0000   1.0000   1.0000
     1.0000   1.0000   1.0000   1.0000   1.0000   1.0000   1.0000   1.0000
     1.0000   1.0000   1.0000   1.0000   1.0000   1.0000   1.0000   1.0000
     1.0000   1.0000   1.0000   1.0000   1.0000   1.0000   1.0000   1.0000
     1.0000   1.0000   1.0000   1.0000   1.0000   1.0000   1.0000   1.0000
     1.0000   1.0000   1.0000   1.0000   1.0000   1.0000   1.0000   1.0000
     1.0000   1.0000   1.0000   1.0000   1.0000   1.0000   1.0000   1.0000
     1.0000   1.0000   1.0000   1.0000   1.0000   1.0000   1.0000   1.0000
     1.0000   1.0000   1.0000   1.0000   1.0000   1.0000   1.0000   1.0000
     1.0000   1.0000   1.0000   1.0000   1.0000   1.0000   1.0000   1.0000
     1.0000   1.0000   1.0000   1.0000   1.0000   1.0000   1.0000   1.0000
     1.0000   1.0000   1.0000   1.0000   1.0000   1.0000   1.0000   1.0000
     1.0000   1.0000   1.0000   1.0000   1.0000   1.0000   1.0000   1.0000
     1.0000   1.0000   1.0000   1.0000   0.0000   0.0000   0.0000   0.0000
     0.0000   0.0000   0.0000   0.0000   0.0000   0.0000   0.0000   0.0000
     0.0000   0.0000

          k = 0.0000 0.2391 0.0000 ( 31251 PWs)   bands (ev):

   -78.5975 -78.5971 -78.5958 -78.5953 -45.3794 -45.3777 -45.3775 -45.3758
   -44.7312 -44.7308 -44.7296 -44.7289 -43.9011 -43.8998 -43.8994 -43.8981
   -40.8670 -40.8670 -40.8527 -40.8527 -14.0047 -13.9483 -13.9113 -13.7440
   -13.0432 -13.0405 -13.0188 -12.9864 -12.9597 -12.9579 -12.8541 -12.8538
   -12.8280 -12.8264 -12.6618 -12.6305 -10.7184 -10.6912 -10.6678 -10.6365
   -10.6355 -10.6196 -10.5037 -10.4285 -10.4033 -10.3970 -10.3554 -10.3039
    -0.3967   0.1609   0.3233   0.4003   0.7737   1.3057   1.3169   1.4531
     1.6427   1.7517   2.0617   2.1524   2.2344   2.2753   2.2853   2.6383
     3.2790   3.4826   3.7672   3.8699   3.9194   4.1184   4.2314   4.3200
     4.3911   4.4028   4.6316   4.8058   4.8312   4.8794   5.1025   5.2350
     5.2403   5.2440   5.3656   5.3923   5.5820   5.6666   5.7313   5.9208
     5.9900   6.0380   6.0532   6.4330   6.5693   6.7370   6.9494   7.2276
     7.7235   7.7736   7.9017   8.0481   8.0793   8.2074   8.3176   8.4669
     8.6666   8.8238   8.9310   8.9816   9.0583   9.0746   9.2978   9.4678
     9.4759   9.8705   9.9526   9.9580  13.6443  15.6068  15.6607  15.8929
    16.6351  16.6381  17.2564  17.9721  18.2667  18.2997  18.3956  18.4636
    18.6320  18.7269

     occupation numbers 
     1.0000   1.0000   1.0000   1.0000   1.0000   1.0000   1.0000   1.0000
     1.0000   1.0000   1.0000   1.0000   1.0000   1.0000   1.0000   1.0000
     1.0000   1.0000   1.0000   1.0000   1.0000   1.0000   1.0000   1.0000
     1.0000   1.0000   1.0000   1.0000   1.0000   1.0000   1.0000   1.0000
     1.0000   1.0000   1.0000   1.0000   1.0000   1.0000   1.0000   1.0000
     1.0000   1.0000   1.0000   1.0000   1.0000   1.0000   1.0000   1.0000
     1.0000   1.0000   1.0000   1.0000   1.0000   1.0000   1.0000   1.0000
     1.0000   1.0000   1.0000   1.0000   1.0000   1.0000   1.0000   1.0000
     1.0000   1.0000   1.0000   1.0000   1.0000   1.0000   1.0000   1.0000
     1.0000   1.0000   1.0000   1.0000   1.0000   1.0000   1.0000   1.0000
     1.0000   1.0000   1.0000   1.0000   1.0000   1.0000   1.0000   1.0000
     1.0000   1.0000   1.0000   1.0000   1.0000   1.0000   1.0000   1.0000
     1.0000   1.0000   1.0000   1.0000   1.0000   1.0000   1.0000   1.0000
     1.0000   1.0000   1.0000   1.0000   1.0000   1.0000   1.0000   1.0000
     1.0000   1.0000   1.0000   1.0000   0.0000   0.0000   0.0000   0.0000
     0.0000   0.0000   0.0000   0.0000   0.0000   0.0000   0.0000   0.0000
     0.0000   0.0000

          k = 0.0000 0.2391 0.2337 ( 31298 PWs)   bands (ev):

   -78.5975 -78.5971 -78.5958 -78.5953 -45.3793 -45.3776 -45.3775 -45.3759
   -44.7312 -44.7308 -44.7296 -44.7289 -43.9011 -43.8999 -43.8994 -43.8981
   -40.8670 -40.8670 -40.8527 -40.8527 -14.0191 -13.9159 -13.9123 -13.7463
   -13.0354 -13.0292 -13.0033 -12.9813 -12.9528 -12.9478 -12.8544 -12.8540
   -12.8292 -12.8276 -12.6817 -12.6545 -10.7274 -10.6946 -10.6942 -10.6357
   -10.6242 -10.6180 -10.5252 -10.4193 -10.4030 -10.3966 -10.3678 -10.3143
    -0.3727   0.1517   0.3178   0.4213   0.8567   1.3155   1.3962   1.5171
     1.6461   1.7746   2.0775   2.1604   2.2136   2.2434   2.2761   2.6125
     3.2855   3.4628   3.7660   3.8621   3.8671   4.0767   4.1653   4.2849
     4.3092   4.4553   4.6274   4.7435   4.8331   4.8971   5.0442   5.2186
     5.2274   5.2427   5.3652   5.4960   5.6367   5.6710   5.6884   5.9259
     5.9623   6.0759   6.1098   6.4456   6.5703   6.7680   6.9406   7.2076
     7.7200   7.7646   7.9095   8.0517   8.0811   8.1925   8.2688   8.4290
     8.6923   8.8386   8.9656   8.9863   9.0899   9.0905   9.3123   9.4370
     9.4609   9.8417   9.9522   9.9597  13.7799  15.5965  15.7520  15.8941
    16.6410  16.6576  17.3956  17.8063  17.9589  18.1071  18.1858  18.4234
    18.7246  18.8294

     occupation numbers 
     1.0000   1.0000   1.0000   1.0000   1.0000   1.0000   1.0000   1.0000
     1.0000   1.0000   1.0000   1.0000   1.0000   1.0000   1.0000   1.0000
     1.0000   1.0000   1.0000   1.0000   1.0000   1.0000   1.0000   1.0000
     1.0000   1.0000   1.0000   1.0000   1.0000   1.0000   1.0000   1.0000
     1.0000   1.0000   1.0000   1.0000   1.0000   1.0000   1.0000   1.0000
     1.0000   1.0000   1.0000   1.0000   1.0000   1.0000   1.0000   1.0000
     1.0000   1.0000   1.0000   1.0000   1.0000   1.0000   1.0000   1.0000
     1.0000   1.0000   1.0000   1.0000   1.0000   1.0000   1.0000   1.0000
     1.0000   1.0000   1.0000   1.0000   1.0000   1.0000   1.0000   1.0000
     1.0000   1.0000   1.0000   1.0000   1.0000   1.0000   1.0000   1.0000
     1.0000   1.0000   1.0000   1.0000   1.0000   1.0000   1.0000   1.0000
     1.0000   1.0000   1.0000   1.0000   1.0000   1.0000   1.0000   1.0000
     1.0000   1.0000   1.0000   1.0000   1.0000   1.0000   1.0000   1.0000
     1.0000   1.0000   1.0000   1.0000   1.0000   1.0000   1.0000   1.0000
     1.0000   1.0000   1.0000   1.0000   0.0000   0.0000   0.0000   0.0000
     0.0000   0.0000   0.0000   0.0000   0.0000   0.0000   0.0000   0.0000
     0.0000   0.0000

          k = 0.0000 0.2391 0.4675 ( 31274 PWs)   bands (ev):

   -78.5975 -78.5971 -78.5958 -78.5953 -45.3792 -45.3777 -45.3775 -45.3760
   -44.7311 -44.7308 -44.7296 -44.7289 -43.9010 -43.9000 -43.8993 -43.8982
   -40.8670 -40.8670 -40.8527 -40.8527 -14.0421 -13.9378 -13.8358 -13.7166
   -13.0411 -13.0295 -12.9819 -12.9739 -12.9202 -12.9104 -12.8530 -12.8521
   -12.8357 -12.8353 -12.7192 -12.6929 -10.7427 -10.7424 -10.7358 -10.6166
   -10.6065 -10.6049 -10.5781 -10.4448 -10.4281 -10.4152 -10.3405 -10.3193
    -0.3020   0.1424   0.2889   0.4274   1.1198   1.3702   1.5759   1.6079
     1.7425   1.8322   2.1035   2.1301   2.1760   2.2329   2.2867   2.5401
     3.2872   3.4214   3.7011   3.7716   3.8486   3.9701   4.0140   4.1996
     4.2993   4.4272   4.6341   4.6688   4.7618   4.8745   4.9238   4.9658
     5.1400   5.2195   5.5169   5.5215   5.7167   5.7746   5.8006   5.9452
     5.9959   6.1439   6.1638   6.4875   6.5801   6.8566   6.9073   7.1616
     7.7140   7.7490   7.9313   8.0568   8.0895   8.1485   8.1662   8.3505
     8.7650   8.8861   9.0006   9.0242   9.1294   9.1446   9.3670   9.3683
     9.4007   9.7800   9.9389   9.9631  14.1381  15.5957  15.8239  16.0555
    16.6806  16.7017  17.2916  17.6265  17.8469  17.8717  17.9729  18.0984
    18.5817  18.7707

     occupation numbers 
     1.0000   1.0000   1.0000   1.0000   1.0000   1.0000   1.0000   1.0000
     1.0000   1.0000   1.0000   1.0000   1.0000   1.0000   1.0000   1.0000
     1.0000   1.0000   1.0000   1.0000   1.0000   1.0000   1.0000   1.0000
     1.0000   1.0000   1.0000   1.0000   1.0000   1.0000   1.0000   1.0000
     1.0000   1.0000   1.0000   1.0000   1.0000   1.0000   1.0000   1.0000
     1.0000   1.0000   1.0000   1.0000   1.0000   1.0000   1.0000   1.0000
     1.0000   1.0000   1.0000   1.0000   1.0000   1.0000   1.0000   1.0000
     1.0000   1.0000   1.0000   1.0000   1.0000   1.0000   1.0000   1.0000
     1.0000   1.0000   1.0000   1.0000   1.0000   1.0000   1.0000   1.0000
     1.0000   1.0000   1.0000   1.0000   1.0000   1.0000   1.0000   1.0000
     1.0000   1.0000   1.0000   1.0000   1.0000   1.0000   1.0000   1.0000
     1.0000   1.0000   1.0000   1.0000   1.0000   1.0000   1.0000   1.0000
     1.0000   1.0000   1.0000   1.0000   1.0000   1.0000   1.0000   1.0000
     1.0000   1.0000   1.0000   1.0000   1.0000   1.0000   1.0000   1.0000
     1.0000   1.0000   1.0000   1.0000   0.0000   0.0000   0.0000   0.0000
     0.0000   0.0000   0.0000   0.0000   0.0000   0.0000   0.0000   0.0000
     0.0000   0.0000

          k = 0.0000 0.2391 0.7012 ( 31293 PWs)   bands (ev):

   -78.5975 -78.5971 -78.5958 -78.5953 -45.3789 -45.3779 -45.3772 -45.3763
   -44.7311 -44.7308 -44.7296 -44.7289 -43.9009 -43.9001 -43.8992 -43.8984
   -40.8670 -40.8669 -40.8527 -40.8526 -14.0576 -13.9873 -13.7236 -13.6419
   -13.0732 -13.0710 -12.9770 -12.9678 -12.9270 -12.9157 -12.8477 -12.8470
   -12.8411 -12.8395 -12.7033 -12.6688 -10.8112 -10.7930 -10.7375 -10.6549
   -10.6017 -10.5859 -10.5695 -10.4874 -10.4550 -10.4532 -10.3071 -10.3048
    -0.1892   0.1575   0.2198   0.3672   1.4772   1.5294   1.6335   1.7251
     1.8883   1.9690   2.0071   2.0405   2.1832   2.3638   2.4421   2.4560
     3.2376   3.4083   3.5391   3.6490   3.8202   3.8569   3.9212   4.1886
     4.2006   4.3023   4.4064   4.5653   4.7219   4.7333   4.8987   4.9302
     5.0083   5.2124   5.4174   5.4338   5.8580   5.9755   5.9840   6.0098
     6.1036   6.2168   6.2380   6.4751   6.6122   6.8294   6.9791   7.1298
     7.7167   7.7450   7.9629   8.0512   8.0686   8.0802   8.1116   8.2713
     8.8750   8.9661   9.0214   9.0547   9.1694   9.1871   9.2746   9.3029
     9.4563   9.7076   9.9281   9.9550  14.6119  15.6668  15.7502  16.2247
    16.6432  16.7840  17.1383  17.5064  17.6994  17.7808  17.8822  17.9662
    18.3826  18.6804

     occupation numbers 
     1.0000   1.0000   1.0000   1.0000   1.0000   1.0000   1.0000   1.0000
     1.0000   1.0000   1.0000   1.0000   1.0000   1.0000   1.0000   1.0000
     1.0000   1.0000   1.0000   1.0000   1.0000   1.0000   1.0000   1.0000
     1.0000   1.0000   1.0000   1.0000   1.0000   1.0000   1.0000   1.0000
     1.0000   1.0000   1.0000   1.0000   1.0000   1.0000   1.0000   1.0000
     1.0000   1.0000   1.0000   1.0000   1.0000   1.0000   1.0000   1.0000
     1.0000   1.0000   1.0000   1.0000   1.0000   1.0000   1.0000   1.0000
     1.0000   1.0000   1.0000   1.0000   1.0000   1.0000   1.0000   1.0000
     1.0000   1.0000   1.0000   1.0000   1.0000   1.0000   1.0000   1.0000
     1.0000   1.0000   1.0000   1.0000   1.0000   1.0000   1.0000   1.0000
     1.0000   1.0000   1.0000   1.0000   1.0000   1.0000   1.0000   1.0000
     1.0000   1.0000   1.0000   1.0000   1.0000   1.0000   1.0000   1.0000
     1.0000   1.0000   1.0000   1.0000   1.0000   1.0000   1.0000   1.0000
     1.0000   1.0000   1.0000   1.0000   1.0000   1.0000   1.0000   1.0000
     1.0000   1.0000   1.0000   1.0000   0.0000   0.0000   0.0000   0.0000
     0.0000   0.0000   0.0000   0.0000   0.0000   0.0000   0.0000   0.0000
     0.0000   0.0000

          k = 0.0000 0.2391 0.9349 ( 31292 PWs)   bands (ev):

   -78.5975 -78.5971 -78.5958 -78.5953 -45.3787 -45.3782 -45.3770 -45.3765
   -44.7311 -44.7308 -44.7296 -44.7289 -43.9008 -43.9002 -43.8991 -43.8985
   -40.8670 -40.8669 -40.8527 -40.8526 -14.0555 -14.0312 -13.6131 -13.5793
   -13.1374 -13.1319 -12.9701 -12.9604 -12.9538 -12.9422 -12.8509 -12.8508
   -12.8344 -12.8341 -12.6474 -12.6313 -10.8531 -10.8401 -10.7318 -10.7103
   -10.5871 -10.5763 -10.5275 -10.5064 -10.4898 -10.4863 -10.2911 -10.2902
    -0.0458   0.1029   0.2035   0.2771   1.6167   1.6655   1.7839   1.8356
     1.8607   1.9448   2.0357   2.1274   2.2223   2.2996   2.6323   2.6563
     3.1790   3.3079   3.4392   3.5221   3.6879   3.7592   3.8992   3.9761
     4.2282   4.2769   4.3006   4.3984   4.6680   4.6834   4.8895   4.8951
     5.0854   5.2185   5.2932   5.3232   5.9504   6.0098   6.0649   6.1103
     6.1850   6.3175   6.4053   6.4797   6.5709   6.6882   7.0839   7.1262
     7.7355   7.7490   7.9984   8.0053   8.0159   8.0329   8.1497   8.2037
     9.0048   9.0397   9.0552   9.0749   9.1514   9.1729   9.2089   9.2158
     9.5492   9.6317   9.9289   9.9407  15.0980  15.5123  15.8275  16.0306
    16.8131  16.8299  17.1661  17.3083  17.6828  17.7579  17.7700  17.9402
    18.3947  18.5952

     occupation numbers 
     1.0000   1.0000   1.0000   1.0000   1.0000   1.0000   1.0000   1.0000
     1.0000   1.0000   1.0000   1.0000   1.0000   1.0000   1.0000   1.0000
     1.0000   1.0000   1.0000   1.0000   1.0000   1.0000   1.0000   1.0000
     1.0000   1.0000   1.0000   1.0000   1.0000   1.0000   1.0000   1.0000
     1.0000   1.0000   1.0000   1.0000   1.0000   1.0000   1.0000   1.0000
     1.0000   1.0000   1.0000   1.0000   1.0000   1.0000   1.0000   1.0000
     1.0000   1.0000   1.0000   1.0000   1.0000   1.0000   1.0000   1.0000
     1.0000   1.0000   1.0000   1.0000   1.0000   1.0000   1.0000   1.0000
     1.0000   1.0000   1.0000   1.0000   1.0000   1.0000   1.0000   1.0000
     1.0000   1.0000   1.0000   1.0000   1.0000   1.0000   1.0000   1.0000
     1.0000   1.0000   1.0000   1.0000   1.0000   1.0000   1.0000   1.0000
     1.0000   1.0000   1.0000   1.0000   1.0000   1.0000   1.0000   1.0000
     1.0000   1.0000   1.0000   1.0000   1.0000   1.0000   1.0000   1.0000
     1.0000   1.0000   1.0000   1.0000   1.0000   1.0000   1.0000   1.0000
     1.0000   1.0000   1.0000   1.0000   0.0000   0.0000   0.0000   0.0000
     0.0000   0.0000   0.0000   0.0000   0.0000   0.0000   0.0000   0.0000
     0.0000   0.0000

          k = 0.0000 0.4781 0.0000 ( 31226 PWs)   bands (ev):

   -78.5975 -78.5971 -78.5958 -78.5953 -45.3791 -45.3778 -45.3774 -45.3761
   -44.7311 -44.7308 -44.7296 -44.7289 -43.9010 -43.9000 -43.8992 -43.8982
   -40.8649 -40.8648 -40.8549 -40.8548 -13.9668 -13.9323 -13.9077 -13.7875
   -13.0184 -13.0164 -12.9929 -12.9680 -12.9459 -12.9395 -12.8782 -12.8759
   -12.8378 -12.8240 -12.6882 -12.6862 -10.7367 -10.7186 -10.6991 -10.6536
   -10.6306 -10.5967 -10.5262 -10.4594 -10.4048 -10.3372 -10.3198 -10.3108
    -0.2777   0.2191   0.2467   0.4235   0.9218   1.3428   1.3648   1.3925
     1.7667   1.8005   1.9476   2.1042   2.2468   2.3820   2.3840   2.5486
     3.3533   3.4792   3.5408   3.8577   3.9398   3.9714   4.0321   4.2240
     4.3701   4.5310   4.5957   4.7311   4.7731   4.8275   5.1061   5.2416
     5.2581   5.3417   5.4295   5.4380   5.6031   5.6974   5.7296   6.0019
     6.0137   6.0438   6.0822   6.3630   6.5466   6.5777   6.8707   7.0450
     7.7283   7.7509   7.8589   7.9890   8.0662   8.3318   8.3678   8.5751
     8.6090   8.7381   8.9157   8.9833   9.0163   9.1025   9.2675   9.2945
     9.5117   9.9940   9.9980  10.0319  14.0761  15.7279  15.8559  15.9580
    16.7479  16.9350  17.1253  17.9507  18.0197  18.0596  18.4827  18.5196
    18.6733  18.8333

     occupation numbers 
     1.0000   1.0000   1.0000   1.0000   1.0000   1.0000   1.0000   1.0000
     1.0000   1.0000   1.0000   1.0000   1.0000   1.0000   1.0000   1.0000
     1.0000   1.0000   1.0000   1.0000   1.0000   1.0000   1.0000   1.0000
     1.0000   1.0000   1.0000   1.0000   1.0000   1.0000   1.0000   1.0000
     1.0000   1.0000   1.0000   1.0000   1.0000   1.0000   1.0000   1.0000
     1.0000   1.0000   1.0000   1.0000   1.0000   1.0000   1.0000   1.0000
     1.0000   1.0000   1.0000   1.0000   1.0000   1.0000   1.0000   1.0000
     1.0000   1.0000   1.0000   1.0000   1.0000   1.0000   1.0000   1.0000
     1.0000   1.0000   1.0000   1.0000   1.0000   1.0000   1.0000   1.0000
     1.0000   1.0000   1.0000   1.0000   1.0000   1.0000   1.0000   1.0000
     1.0000   1.0000   1.0000   1.0000   1.0000   1.0000   1.0000   1.0000
     1.0000   1.0000   1.0000   1.0000   1.0000   1.0000   1.0000   1.0000
     1.0000   1.0000   1.0000   1.0000   1.0000   1.0000   1.0000   1.0000
     1.0000   1.0000   1.0000   1.0000   1.0000   1.0000   1.0000   1.0000
     1.0000   1.0000   1.0000   1.0000   0.0000   0.0000   0.0000   0.0000
     0.0000   0.0000   0.0000   0.0000   0.0000   0.0000   0.0000   0.0000
     0.0000   0.0000

          k = 0.0000 0.4781 0.2337 ( 31258 PWs)   bands (ev):

   -78.5975 -78.5971 -78.5958 -78.5953 -45.3791 -45.3778 -45.3774 -45.3761
   -44.7311 -44.7308 -44.7296 -44.7289 -43.9009 -43.9000 -43.8992 -43.8983
   -40.8649 -40.8648 -40.8549 -40.8548 -13.9785 -13.9042 -13.9033 -13.7872
   -13.0184 -13.0170 -12.9882 -12.9664 -12.9372 -12.9295 -12.8814 -12.8774
   -12.8359 -12.8202 -12.6990 -12.6955 -10.7424 -10.7379 -10.6880 -10.6675
   -10.6306 -10.5837 -10.5606 -10.4526 -10.3963 -10.3553 -10.3231 -10.3168
    -0.2541   0.2329   0.2405   0.4350   0.9910   1.3587   1.4267   1.4672
     1.7878   1.7885   1.9878   2.1203   2.2210   2.3542   2.3625   2.5225
     3.3616   3.4352   3.5346   3.8029   3.8942   3.9233   4.0393   4.2443
     4.2831   4.5272   4.6304   4.7427   4.7559   4.7908   5.1541   5.2194
     5.2524   5.2743   5.4070   5.4234   5.6629   5.6976   5.7742   6.0192
     6.0222   6.0371   6.1045   6.3718   6.5426   6.6032   6.8612   7.0401
     7.7232   7.7402   7.8713   7.9948   8.0743   8.3253   8.3444   8.5424
     8.6224   8.7480   8.9208   8.9978   9.0344   9.1191   9.2474   9.2763
     9.5281   9.9579  10.0181  10.0276  14.1974  15.7631  15.8442  16.0580
    16.7492  16.8993  17.3027  17.6499  17.9259  18.0173  18.3644  18.5262
    18.6714  18.7263

     occupation numbers 
[...]
     atom   25 type  3   force =    -0.10430868   -0.17807513    0.08269646
     atom   26 type  3   force =     0.10429732    0.17806754    0.08270560
     atom   27 type  3   force =     0.10430868   -0.17807513   -0.08269646
     atom   28 type  3   force =    -0.10429732    0.17806754   -0.08270560
     The non-local contrib.  to forces
     atom    1 type  2   force =     0.00000000    0.00000000    0.00000000
     atom    2 type  2   force =     0.00000000    0.00000000    0.00000000
     atom    3 type  2   force =     0.00000000   -0.00000000    0.00000000
     atom    4 type  2   force =     0.00000000    0.00000000    0.00000000
     atom    5 type  1   force =    -0.06237092    0.00000000    0.06350291
     atom    6 type  1   force =     0.06235306   -0.00000000    0.06349775
     atom    7 type  1   force =     0.06237092   -0.00000000   -0.06350291
     atom    8 type  1   force =    -0.06235306    0.00000000   -0.06349775
     atom    9 type  4   force =    -0.00631103    0.00000000    0.01277977
     atom   10 type  4   force =     0.00641530    0.00000000    0.01268943
     atom   11 type  4   force =     0.00631103    0.00000000   -0.01277977
     atom   12 type  4   force =    -0.00641530    0.00000000   -0.01268943
     atom   13 type  3   force =     0.14361042    0.00000000   -1.41343000
     atom   14 type  3   force =    -0.14359600    0.00000000   -1.41342287
     atom   15 type  3   force =    -0.14361042    0.00000000    1.41343000
     atom   16 type  3   force =     0.14359600    0.00000000    1.41342287
     atom   17 type  3   force =     1.12700341    0.00000000   -0.64622448
     atom   18 type  3   force =    -1.12698610    0.00000000   -0.64626812
     atom   19 type  3   force =    -1.12700341    0.00000000    0.64622448
     atom   20 type  3   force =     1.12698610    0.00000000    0.64626812
     atom   21 type  3   force =    -0.61980716   -0.95616683    0.67120861
     atom   22 type  3   force =     0.61984409    0.95618005    0.67119197
     atom   23 type  3   force =     0.61980716   -0.95616683   -0.67120861
     atom   24 type  3   force =    -0.61984409    0.95618005   -0.67119197
     atom   25 type  3   force =     0.61980716    0.95616683   -0.67120861
     atom   26 type  3   force =    -0.61984409   -0.95618005   -0.67119197
     atom   27 type  3   force =    -0.61980716    0.95616683    0.67120861
     atom   28 type  3   force =     0.61984409   -0.95618005    0.67119197
     The ionic contribution  to forces
     atom    1 type  2   force =     0.00047813   -0.00007905    0.00023297
     atom    2 type  2   force =    -0.00026581    0.00021886    0.00005543
     atom    3 type  2   force =     0.00061213    0.00021568    0.00029942
     atom    4 type  2   force =    -0.00013181   -0.00008223   -0.00001102
     atom    5 type  1   force =     3.42787759   -0.00086359   -1.43720262
     atom    6 type  1   force =    -3.42574215    0.00084299   -1.43676837
     atom    7 type  1   force =    -3.42835685    0.00084299    1.43728429
     atom    8 type  1   force =     3.42588738   -0.00086359    1.43659297
     atom    9 type  4   force =    -0.91303045   -0.00020195    2.14037824
     atom   10 type  4   force =     0.91411213    0.00018816    2.13965654
     atom   11 type  4   force =     0.91315941    0.00018816   -2.14046943
     atom   12 type  4   force =    -0.91426486   -0.00020195   -2.13961417
     atom   13 type  3   force =    -4.08037688   -0.00027591    1.63030202
     atom   14 type  3   force =     4.08119758    0.00021252    1.63088858
     atom   15 type  3   force =     4.08064558    0.00021252   -1.63025909
     atom   16 type  3   force =    -4.08136652   -0.00027590   -1.63086413
     atom   17 type  3   force =    -1.77677774   -0.00026974    2.98640838
     atom   18 type  3   force =     1.77812828    0.00020548    2.98654671
     atom   19 type  3   force =     1.77654836    0.00020547   -2.98648066
     atom   20 type  3   force =    -1.77778096   -0.00026975   -2.98648298
     atom   21 type  3   force =     0.79302769    2.82300123   -1.55761887
     atom   22 type  3   force =    -0.79235034   -2.82274982   -1.55791415
     atom   23 type  3   force =    -0.79326847    2.82341805    1.55714347
     atom   24 type  3   force =     0.79231486   -2.82331719    1.55767666
     atom   25 type  3   force =    -0.79314265   -2.82293499    1.55738292
     atom   26 type  3   force =     0.79220392    2.82285954    1.55790356
     atom   27 type  3   force =     0.79313863   -2.82345888   -1.55739197
     atom   28 type  3   force =    -0.79247615    2.82323289   -1.55767469
     The local contribution  to forces
     atom    1 type  2   force =     0.00000000   -0.00000000   -0.00000000
     atom    2 type  2   force =    -0.00450998   -0.00017532   -0.00212059
     atom    3 type  2   force =     0.00009098   -0.00178337    0.00004445
     atom    4 type  2   force =    -0.00441900   -0.00160805   -0.00216505
     atom    5 type  1   force =    -3.37767685   -0.00835767    1.36675771
     atom    6 type  1   force =     3.35626121   -0.00208942    1.36605936
     atom    7 type  1   force =     3.35687162   -0.00208942   -1.37678311
     atom    8 type  1   force =    -3.37373991   -0.00835766   -1.37638131
     atom    9 type  4   force =     0.89751050   -0.00001242   -2.10314957
     atom   10 type  4   force =    -0.89857796   -0.00000311   -2.10234034
     atom   11 type  4   force =    -0.89753133   -0.00000311    2.10322638
     atom   12 type  4   force =     0.89860147   -0.00001240    2.10251056
     atom   13 type  3   force =     3.92583896   -0.00198362   -0.06267620
     atom   14 type  3   force =    -3.93117552   -0.00049591   -0.06349404
     atom   15 type  3   force =    -3.93024087   -0.00049590    0.06069914
     atom   16 type  3   force =     3.92645110   -0.00198364    0.06093547
     atom   17 type  3   force =     0.47567256   -0.00199789   -2.29100739
     atom   18 type  3   force =    -0.48063424   -0.00049948   -2.29128868
     atom   19 type  3   force =    -0.47932386   -0.00049948    2.28899599
     atom   20 type  3   force =     0.47670676   -0.00199792    2.28869638
     atom   21 type  3   force =    -0.07529404   -1.69609271    0.80725894
     atom   22 type  3   force =     0.06970573    1.69420343    0.80767584
     atom   23 type  3   force =     0.07039053   -1.69535574   -0.80956225
     atom   24 type  3   force =    -0.07461516    1.69287723   -0.80962124
     atom   25 type  3   force =     0.07044921    1.69455358   -0.80949033
     atom   26 type  3   force =    -0.07438044   -1.69608583   -0.80990893
     atom   27 type  3   force =    -0.07552878    1.69288413    0.80697124
     atom   28 type  3   force =     0.06964705   -1.69500558    0.80774775
     The core correction contribution to forces
     atom    1 type  2   force =     0.00000000    0.00000000    0.00000000
     atom    2 type  2   force =     0.00000000    0.00000000    0.00000000
     atom    3 type  2   force =     0.00000000    0.00000000    0.00000000
     atom    4 type  2   force =     0.00000000    0.00000000    0.00000000
     atom    5 type  1   force =     0.00480219    0.00026050   -0.00030071
     atom    6 type  1   force =    -0.00413923    0.00006513   -0.00031482
     atom    7 type  1   force =    -0.00407294    0.00006513    0.00068604
     atom    8 type  1   force =     0.00473406    0.00026049    0.00067303
     atom    9 type  4   force =     0.00033985    0.00000613   -0.00415710
     atom   10 type  4   force =    -0.00033262    0.00000153   -0.00414882
     atom   11 type  4   force =    -0.00032395    0.00000153    0.00416571
     atom   12 type  4   force =     0.00034878    0.00000613    0.00415798
     atom   13 type  3   force =    -0.00182946   -0.00000129    0.00975488
     atom   14 type  3   force =     0.00182526   -0.00000032    0.00975448
     atom   15 type  3   force =     0.00182512   -0.00000032   -0.00975828
     atom   16 type  3   force =    -0.00182894   -0.00000129   -0.00975669
     atom   17 type  3   force =    -0.00679839   -0.00000126    0.00530251
     atom   18 type  3   force =     0.00679127   -0.00000032    0.00530202
     atom   19 type  3   force =     0.00679327   -0.00000032   -0.00530390
     atom   20 type  3   force =    -0.00679674   -0.00000126   -0.00530417
     atom   21 type  3   force =     0.00388690    0.00575251   -0.00484412
     atom   22 type  3   force =    -0.00389093   -0.00575533   -0.00484459
     atom   23 type  3   force =    -0.00389004    0.00575427    0.00484278
     atom   24 type  3   force =     0.00388725   -0.00575649    0.00484173
     atom   25 type  3   force =    -0.00389010   -0.00575522    0.00484276
     atom   26 type  3   force =     0.00388701    0.00575272    0.00484181
     atom   27 type  3   force =     0.00388714   -0.00575628   -0.00484404
     atom   28 type  3   force =    -0.00389087    0.00575439   -0.00484461
     The Hubbard contrib.    to forces
     atom    1 type  2   force =     0.00000000    0.00000000    0.00000000
     atom    2 type  2   force =     0.00000000    0.00000000    0.00000000
     atom    3 type  2   force =     0.00000000    0.00000000    0.00000000
     atom    4 type  2   force =     0.00000000    0.00000000    0.00000000
     atom    5 type  1   force =     0.00000000    0.00000000    0.00000000
     atom    6 type  1   force =     0.00000000    0.00000000    0.00000000
     atom    7 type  1   force =     0.00000000    0.00000000    0.00000000
     atom    8 type  1   force =     0.00000000    0.00000000    0.00000000
     atom    9 type  4   force =     0.00000000    0.00000000    0.00000000
     atom   10 type  4   force =     0.00000000    0.00000000    0.00000000
     atom   11 type  4   force =     0.00000000    0.00000000    0.00000000
     atom   12 type  4   force =     0.00000000    0.00000000    0.00000000
     atom   13 type  3   force =     0.00000000    0.00000000    0.00000000
     atom   14 type  3   force =     0.00000000    0.00000000    0.00000000
     atom   15 type  3   force =     0.00000000    0.00000000    0.00000000
     atom   16 type  3   force =     0.00000000    0.00000000    0.00000000
     atom   17 type  3   force =     0.00000000    0.00000000    0.00000000
     atom   18 type  3   force =     0.00000000    0.00000000    0.00000000
     atom   19 type  3   force =     0.00000000    0.00000000    0.00000000
     atom   20 type  3   force =     0.00000000    0.00000000    0.00000000
     atom   21 type  3   force =     0.00000000    0.00000000    0.00000000
     atom   22 type  3   force =     0.00000000    0.00000000    0.00000000
     atom   23 type  3   force =     0.00000000    0.00000000    0.00000000
     atom   24 type  3   force =     0.00000000    0.00000000    0.00000000
     atom   25 type  3   force =     0.00000000    0.00000000    0.00000000
     atom   26 type  3   force =     0.00000000    0.00000000    0.00000000
     atom   27 type  3   force =     0.00000000    0.00000000    0.00000000
     atom   28 type  3   force =     0.00000000    0.00000000    0.00000000
     The SCF correction term to forces
     atom    1 type  2   force =     0.00000000   -0.00000000    0.00000000
     atom    2 type  2   force =    -0.00000001    0.00000000   -0.00000000
     atom    3 type  2   force =     0.00000000   -0.00000000    0.00000000
     atom    4 type  2   force =    -0.00000001   -0.00000000   -0.00000000
     atom    5 type  1   force =    -0.00000367   -0.00000002    0.00000053
     atom    6 type  1   force =    -0.00000286   -0.00000000   -0.00000153
     atom    7 type  1   force =     0.00000363   -0.00000000   -0.00000055
     atom    8 type  1   force =     0.00000281   -0.00000002    0.00000150
     atom    9 type  4   force =    -0.00000075   -0.00000000   -0.00000006
     atom   10 type  4   force =    -0.00000279    0.00000000    0.00000005
     atom   11 type  4   force =     0.00000075    0.00000000    0.00000006
     atom   12 type  4   force =     0.00000279   -0.00000000   -0.00000005
     atom   13 type  3   force =    -0.00000234   -0.00000000   -0.00000192
     atom   14 type  3   force =    -0.00000530    0.00000000   -0.00000063
     atom   15 type  3   force =     0.00000233    0.00000000    0.00000192
     atom   16 type  3   force =     0.00000529   -0.00000000    0.00000063
     atom   17 type  3   force =     0.00000346   -0.00000000    0.00000143
     atom   18 type  3   force =     0.00000155    0.00000000    0.00000018
     atom   19 type  3   force =    -0.00000347    0.00000000   -0.00000143
     atom   20 type  3   force =    -0.00000156   -0.00000000   -0.00000018
     atom   21 type  3   force =    -0.00000143    0.00000564    0.00000197
     atom   22 type  3   force =    -0.00000318    0.00000399   -0.00000056
     atom   23 type  3   force =     0.00000142    0.00000565   -0.00000198
     atom   24 type  3   force =     0.00000317    0.00000399    0.00000056
     atom   25 type  3   force =     0.00000142   -0.00000564   -0.00000198
     atom   26 type  3   force =     0.00000317   -0.00000399    0.00000056
     atom   27 type  3   force =    -0.00000143   -0.00000565    0.00000197
     atom   28 type  3   force =    -0.00000318   -0.00000399   -0.00000056

     Total force =     0.809677     Total SCF correction =     0.000021


     Computing stress (Cartesian axis) and pressure


     negative rho (up, down):  0.000E+00 4.327E-04
          total   stress  (Ry/bohr**3)                   (kbar)     P=      438.70
   0.00296529   0.00000000   0.00000009          436.21        0.00        0.01
   0.00000000   0.00307651   0.00000000            0.00      452.57        0.00
   0.00000009   0.00000000   0.00290492            0.01        0.00      427.33

     kinetic stress (kbar)  38284.06      0.00     -0.00
                                0.00  38204.78      0.00
                               -0.00      0.00  38264.34

     local   stress (kbar)  -2676.53     -0.12      0.03
                               -0.12  -3874.96     -0.00
                                0.03     -0.00    447.81

     nonloc. stress (kbar) -11476.37      0.00      0.01
                                0.00 -11543.49      0.00
                                0.01      0.00 -11367.66

     hartree stress (kbar)  16428.33      0.00     -0.03
                                0.00  16977.90      0.00
                               -0.03      0.00  14880.25

     exc-cor stress (kbar)  -4324.91      0.00      0.00
                                0.00  -4329.46     -0.00
                                0.00     -0.00  -4319.09

     corecor stress (kbar)  -3646.30     -0.00     -0.00
                               -0.00  -3633.38      0.00
                               -0.00      0.00  -3659.04

     ewald   stress (kbar) -32152.09      0.11      0.01
                                0.11 -31348.81      0.00
                                0.01      0.00 -33819.28

     hubbard stress (kbar)      0.00      0.00      0.00
                                0.00      0.00      0.00
                                0.00      0.00      0.00

     DFT-D   stress (kbar)      0.00      0.00      0.00
                                0.00      0.00      0.00
                                0.00      0.00      0.00

     XDM     stress (kbar)      0.00      0.00      0.00
                                0.00      0.00      0.00
                                0.00      0.00      0.00

     dft-nl  stress (kbar)      0.00      0.00      0.00
                                0.00      0.00      0.00
                                0.00      0.00      0.00

     TS-vdW  stress (kbar)      0.00      0.00      0.00
                                0.00      0.00      0.00
                                0.00      0.00      0.00



     init_run     :   1290.35s CPU   1588.28s WALL (       1 calls)
     electrons    : 131780.58s CPU 162432.72s WALL (       1 calls)
     forces       :    210.05s CPU    210.94s WALL (       1 calls)
     stress       :    615.89s CPU    619.94s WALL (       1 calls)

     Called by init_run:
     wfcinit      :   1273.76s CPU   1567.79s WALL (       1 calls)
     wfcinit:atom :      0.78s CPU      0.96s WALL (     184 calls)
     wfcinit:wfcr :   1268.26s CPU   1560.94s WALL (     184 calls)
     potinit      :      7.11s CPU      8.53s WALL (       1 calls)
     hinit0       :      6.58s CPU      7.87s WALL (       1 calls)

     Called by electrons:
     c_bands      : 111010.32s CPU 136854.43s WALL (      40 calls)
     sum_band     :  20489.69s CPU  25229.52s WALL (      40 calls)
     v_of_rho     :     81.99s CPU     97.42s WALL (      41 calls)
     v_h          :      6.03s CPU      7.05s WALL (      41 calls)
     v_xc         :     80.34s CPU     94.76s WALL (      43 calls)
     newd         :     80.83s CPU    110.49s WALL (      41 calls)
     PAW_pot      :     43.13s CPU     50.93s WALL (      41 calls)
     mix_rho      :     56.79s CPU     68.33s WALL (      40 calls)

     Called by c_bands:
     init_us_2    :    101.27s CPU    121.13s WALL (   15272 calls)
     cegterg      : 110148.30s CPU 135778.02s WALL (    7360 calls)

     Called by sum_band:
     sum_band:wei :      0.39s CPU      0.50s WALL (      40 calls)
     sum_band:loo :  20284.50s CPU  24962.20s WALL (      40 calls)
     sum_band:buf :     27.23s CPU     30.46s WALL (    7360 calls)
     sum_band:ini :     42.62s CPU     52.38s WALL (    7360 calls)
     sum_band:cal :   1518.05s CPU   1860.19s WALL (    7360 calls)
     sum_band:bec :      4.53s CPU      4.96s WALL (    7360 calls)
     addusdens    :    153.01s CPU    209.50s WALL (      40 calls)
     addusd:skk   :      1.01s CPU      1.33s WALL (     120 calls)
     addusd:dgemm :     50.37s CPU     80.65s WALL (     240 calls)
     addusd:qvan2 :     98.27s CPU    122.63s WALL (     240 calls)

     Called by *egterg:
     cdiaghg      :   2752.29s CPU   3433.36s WALL (   26670 calls)
     cegterg:over :   4906.42s CPU   5889.40s WALL (   19310 calls)
     cegterg:upda :    984.99s CPU   1239.24s WALL (   19310 calls)
     cegterg:last :   2136.69s CPU   2686.08s WALL (   13067 calls)
     h_psi        :  94468.27s CPU 116675.84s WALL (   26854 calls)
     s_psi        :   1960.78s CPU   2453.32s WALL (   26854 calls)
     g_psi        :     14.75s CPU     18.43s WALL (   19310 calls)

     Called by h_psi:
     h_psi:calbec :   4103.40s CPU   4967.23s WALL (   26854 calls)
     vloc_psi     :  88328.59s CPU 109118.85s WALL (   26854 calls)
     add_vuspsi   :   1990.52s CPU   2536.47s WALL (   26854 calls)

     General routines
     calbec       :   6001.03s CPU   7208.69s WALL (   35134 calls)
     fft          :     98.41s CPU    116.99s WALL (    1063 calls)
     ffts         :     12.45s CPU     15.21s WALL (     162 calls)
     fftw         : 106715.78s CPU 131826.51s WALL ( 5484034 calls)
     interpolate  :     13.36s CPU     16.25s WALL (      82 calls)

     Parallel routines
     fft_scatt_xy :    394.56s CPU    397.89s WALL ( 5485259 calls)
     fft_scatt_yz : 104319.36s CPU 129367.20s WALL ( 5485259 calls)

     PAW routines
     PAW_pot      :     43.13s CPU     50.93s WALL (      41 calls)
     PAW_symme    :      3.99s CPU      4.82s WALL (      81 calls)

     PWSCF        :   1d13h11m CPU   1d21h47m WALL


   This run was terminated on:  20:11:22   6Feb2023            

=------------------------------------------------------------------------------=
   JOB DONE.
=------------------------------------------------------------------------------=
Note: The following floating-point exceptions are signalling: IEEE_UNDERFLOW_FLAG IEEE_DENORMAL
Note: The following floating-point exceptions are signalling: IEEE_DENORMAL
Note: The following floating-point exceptions are signalling: IEEE_DENORMAL
Note: The following floating-point exceptions are signalling: IEEE_DENORMAL
