
     Program PWSCF v.6.7MaX starts on  3Feb2023 at 15:46:55 

     This program is part of the open-source Quantum ESPRESSO suite
     for quantum simulation of materials; please cite
         "P. Giannozzi et al., J. Phys.:Condens. Matter 21 395502 (2009);
         "P. Giannozzi et al., J. Phys.:Condens. Matter 29 465901 (2017);
          URL http://www.quantum-espresso.org", 
     in publications or presentations arising from this work. More details at
     http://www.quantum-espresso.org/quote

     Parallel version (MPI), running on    12 processors

     MPI processes distributed on     1 nodes
     R & G space division:  proc/nbgrp/npool/nimage =      12
     Reading input from scale_2dab-01.in

     Current dimensions of program PWSCF are:
     Max number of different atomic species (ntypx) = 10
     Max number of k-points (npk) =  40000
     Max angular momentum in pseudopotentials (lmaxx) =  3
     Message from routine read_pp_mesh:
     mesh size missing, using the one in header
     file Fe.pbe-spn-kjpaw_psl.0.2.1.UPF: wavefunction(s)  3D renormalized
     file O.pbe-n-kjpaw_psl.0.1.UPF: wavefunction(s)  2P renormalized

     Subspace diagonalization in iterative solution of the eigenvalue problem:
     a serial algorithm will be used

     Message from routine setup:
     using ibrav=0 with symmetry is DISCOURAGED, use correct ibrav instead

     Parallelization info
     --------------------
     sticks:   dense  smooth     PW     G-vecs:    dense   smooth      PW
     Min        1546     574    154               100835    22732    3202
     Max        1548     575    155               100836    22734    3205
     Sum       18565    6893   1859              1210029   272791   38441



     bravais-lattice index     =            0
     lattice parameter (alat)  =      19.0096  a.u.
     unit-cell volume          =    2018.7343 (a.u.)^3
     number of atoms/cell      =           28
     number of atomic types    =            4
     number of electrons       =       216.00
     number of Kohn-Sham states=          130
     kinetic-energy cutoff     =     100.0000  Ry
     charge density cutoff     =    1080.0000  Ry
     scf convergence threshold =      2.0E-10
     mixing beta               =       0.4000
     number of iterations used =            8  plain     mixing
     Exchange-correlation= PBE
                           (   1   4   3   4   0   0   0)

     celldm(1)=  19.009555  celldm(2)=   0.000000  celldm(3)=   0.000000
     celldm(4)=   0.000000  celldm(5)=   0.000000  celldm(6)=   0.000000

     crystal axes: (cart. coord. in units of alat)
               a(1) = (   1.000000   0.000000   0.000000 )  
               a(2) = (   0.000000   0.597590   0.000000 )  
               a(3) = (   0.000000   0.000000   0.491768 )  

     reciprocal axes: (cart. coord. in units 2 pi/alat)
               b(1) = (  1.000000  0.000000  0.000000 )  
               b(2) = (  0.000000  1.673388  0.000000 )  
               b(3) = (  0.000000  0.000000  2.033480 )  


     PseudoPot. # 1 for Fe read from file:
     /opt/QEpot/SSSP_precision_pseudos/Fe.pbe-spn-kjpaw_psl.0.2.1.UPF
     MD5 check sum: e86618425769142926afa95317d90200
     Pseudo is Projector augmented-wave + core cor, Zval = 16.0
     Generated using "atomic" code by A. Dal Corso  v.5.0.99 svn rev. 10869
     Shape of augmentation charge: PSQ
     Using radial grid of 1191 points,  6 beta functions with: 
                l(1) =   0
                l(2) =   0
                l(3) =   1
                l(4) =   1
                l(5) =   2
                l(6) =   2
     Q(r) pseudized with 0 coefficients 


     PseudoPot. # 2 for Na read from file:
     /opt/QEpot/SSSP_precision_pseudos/Na_ONCV_PBE-1.0.oncvpsp.upf
     MD5 check sum: 24a298df0a6742ae313db96548fdb2a4
     Pseudo is Norm-conserving, Zval =  9.0
     Generated using ONCVPSP code by D. R. Hamann
     Using radial grid of 1992 points,  4 beta functions with: 
                l(1) =   0
                l(2) =   0
                l(3) =   1
                l(4) =   1

     PseudoPot. # 3 for O  read from file:
     /opt/QEpot/SSSP_precision_pseudos/O.pbe-n-kjpaw_psl.0.1.UPF
     MD5 check sum: 0234752ac141de4415c5fc33072bef88
     Pseudo is Projector augmented-wave + core cor, Zval =  6.0
     Generated using "atomic" code by A. Dal Corso  v.5.0.99 svn rev. 10869
     Shape of augmentation charge: BESSEL
     Using radial grid of 1095 points,  4 beta functions with: 
                l(1) =   0
                l(2) =   0
                l(3) =   1
                l(4) =   1
     Q(r) pseudized with 0 coefficients 


     PseudoPot. # 4 for P  read from file:
     /opt/QEpot/SSSP_precision_pseudos/P.pbe-n-rrkjus_psl.1.0.0.UPF
     MD5 check sum: 8b930f418f0a4573dca56cd030ffe088
     Pseudo is Ultrasoft + core correction, Zval =  5.0
     Generated using "atomic" code by A. Dal Corso  v.5.1
     Using radial grid of 1147 points,  6 beta functions with: 
                l(1) =   0
                l(2) =   0
                l(3) =   1
                l(4) =   1
                l(5) =   2
                l(6) =   2
     Q(r) pseudized with 0 coefficients 


     atomic species   valence    mass     pseudopotential
        Fe            16.00    55.84500     Fe( 1.00)
        Na             9.00    22.98977     Na( 1.00)
        O              6.00    15.99940     O ( 1.00)
        P              5.00    30.97376     P ( 1.00)

     Starting magnetic structure 
     atomic species   magnetization
        Fe           0.312
        Na           0.000
        O            0.000
        P            0.000

      4 Sym. Ops., with inversion, found ( 2 have fractional translation)


                                    s                        frac. trans.

      isym =  1     identity                                     

 cryst.   s( 1) = (     1          0          0      )
                  (     0          1          0      )
                  (     0          0          1      )

 cart.    s( 1) = (  1.0000000  0.0000000  0.0000000 )
                  (  0.0000000  1.0000000  0.0000000 )
                  (  0.0000000  0.0000000  1.0000000 )


      isym =  2     180 deg rotation - cart. axis [0,1,0]        

 cryst.   s( 2) = (    -1          0          0      )    f =( -0.0000000 )
                  (     0          1          0      )       ( -0.4999980 )
                  (     0          0         -1      )       (  0.0000000 )

 cart.    s( 2) = ( -1.0000000  0.0000000  0.0000000 )    f =( -0.0000000 )
                  (  0.0000000  1.0000000  0.0000000 )       ( -0.2987938 )
                  (  0.0000000  0.0000000 -1.0000000 )       (  0.0000000 )


      isym =  3     inversion                                    

 cryst.   s( 3) = (    -1          0          0      )
                  (     0         -1          0      )
                  (     0          0         -1      )

 cart.    s( 3) = ( -1.0000000  0.0000000  0.0000000 )
                  (  0.0000000 -1.0000000  0.0000000 )
                  (  0.0000000  0.0000000 -1.0000000 )


      isym =  4     inv. 180 deg rotation - cart. axis [0,1,0]   

 cryst.   s( 4) = (     1          0          0      )    f =(  0.0000000 )
                  (     0         -1          0      )       (  0.4999980 )
                  (     0          0          1      )       (  0.0000000 )

 cart.    s( 4) = (  1.0000000  0.0000000  0.0000000 )    f =(  0.0000000 )
                  (  0.0000000 -1.0000000  0.0000000 )       (  0.2987938 )
                  (  0.0000000  0.0000000  1.0000000 )       (  0.0000000 )


   Cartesian axes

     site n.     atom                  positions (alat units)
         1           Na  tau(   1) = (   0.0000000   0.0000000   0.0000000  )
         2           Na  tau(   2) = (   0.5000030   0.5975899   0.2458854  )
         3           Na  tau(   3) = (   1.0000000   0.2987962   0.0000000  )
         4           Na  tau(   4) = (   0.5000030   0.2987962   0.2458854  )
         5           Fe  tau(   5) = (   0.2870220   0.4481948   0.4850728  )
         6           Fe  tau(   6) = (   0.2129810   0.1493981   0.2391875  )
         7           Fe  tau(   7) = (   0.7129840   0.1493981   0.0066979  )
         8           Fe  tau(   8) = (   0.7870240   0.4481948   0.2525832  )
         9           P   tau(   9) = (   0.1083410   0.4481948   0.2176628  )
        10           P   tau(  10) = (   0.3916620   0.1493981   0.4635482  )
        11           P   tau(  11) = (   0.8916650   0.1493981   0.2741079  )
        12           P   tau(  12) = (   0.6083440   0.4481948   0.0282226  )
        13           O   tau(  13) = (   0.1140120   0.4481948   0.3700179  )
        14           O   tau(  14) = (   0.3859910   0.1493981   0.1241325  )
        15           O   tau(  15) = (   0.8859940   0.1493981   0.1217533  )
        16           O   tau(  16) = (   0.6140150   0.4481948   0.3676387  )
        17           O   tau(  17) = (   0.4685140   0.4481948   0.0792336  )
        18           O   tau(  18) = (   0.0314890   0.1493981   0.3251190  )
        19           O   tau(  19) = (   0.5314920   0.1493981   0.4125371  )
        20           O   tau(  20) = (   0.9685170   0.4481948   0.1666517  )
        21           O   tau(  21) = (   0.1755910   0.5644936   0.1533401  )
        22           O   tau(  22) = (   0.3244120   0.0330993   0.3992254  )
        23           O   tau(  23) = (   0.8244150   0.2656968   0.3384306  )
        24           O   tau(  24) = (   0.6755940   0.3318961   0.0925453  )
        25           O   tau(  25) = (   0.8244150   0.0330993   0.3384306  )
        26           O   tau(  26) = (   0.6755940   0.5644936   0.0925453  )
        27           O   tau(  27) = (   0.1755910   0.3318961   0.1533401  )
        28           O   tau(  28) = (   0.3244120   0.2656968   0.3992254  )

   Crystallographic axes

     site n.     atom                  positions (cryst. coord.)
         1           Na  tau(   1) = (  0.0000000  0.0000000  0.0000000  )
         2           Na  tau(   2) = (  0.5000030  1.0000000  0.5000030  )
         3           Na  tau(   3) = (  1.0000000  0.5000020  0.0000000  )
         4           Na  tau(   4) = (  0.5000030  0.5000020  0.5000030  )
         5           Fe  tau(   5) = (  0.2870220  0.7500040  0.9863860  )
         6           Fe  tau(   6) = (  0.2129810  0.2500010  0.4863830  )
         7           Fe  tau(   7) = (  0.7129840  0.2500010  0.0136200  )
         8           Fe  tau(   8) = (  0.7870240  0.7500040  0.5136230  )
         9           P   tau(   9) = (  0.1083410  0.7500040  0.4426130  )
        10           P   tau(  10) = (  0.3916620  0.2500010  0.9426160  )
        11           P   tau(  11) = (  0.8916650  0.2500010  0.5573930  )
        12           P   tau(  12) = (  0.6083440  0.7500040  0.0573900  )
        13           O   tau(  13) = (  0.1140120  0.7500040  0.7524240  )
        14           O   tau(  14) = (  0.3859910  0.2500010  0.2524210  )
        15           O   tau(  15) = (  0.8859940  0.2500010  0.2475830  )
        16           O   tau(  16) = (  0.6140150  0.7500040  0.7475860  )
        17           O   tau(  17) = (  0.4685140  0.7500040  0.1611200  )
        18           O   tau(  18) = (  0.0314890  0.2500010  0.6611230  )
        19           O   tau(  19) = (  0.5314920  0.2500010  0.8388860  )
        20           O   tau(  20) = (  0.9685170  0.7500040  0.3388830  )
        21           O   tau(  21) = (  0.1755910  0.9446170  0.3118140  )
        22           O   tau(  22) = (  0.3244120  0.0553880  0.8118170  )
        23           O   tau(  23) = (  0.8244150  0.4446140  0.6881920  )
        24           O   tau(  24) = (  0.6755940  0.5553910  0.1881890  )
        25           O   tau(  25) = (  0.8244150  0.0553880  0.6881920  )
        26           O   tau(  26) = (  0.6755940  0.9446170  0.1881890  )
        27           O   tau(  27) = (  0.1755910  0.5553910  0.3118140  )
        28           O   tau(  28) = (  0.3244120  0.4446140  0.8118170  )

     number of k points=    92  Marzari-Vanderbilt smearing, width (Ry)=  0.0073
                       cart. coord. in units 2pi/alat
        k(    1) = (   0.0000000   0.0000000   0.0000000), wk =   0.0031746
        k(    2) = (   0.0000000   0.0000000   0.2259422), wk =   0.0063492
        k(    3) = (   0.0000000   0.0000000   0.4518845), wk =   0.0063492
        k(    4) = (   0.0000000   0.0000000   0.6778267), wk =   0.0063492
        k(    5) = (   0.0000000   0.0000000   0.9037690), wk =   0.0063492
        k(    6) = (   0.0000000   0.2390555   0.0000000), wk =   0.0063492
        k(    7) = (   0.0000000   0.2390555   0.2259422), wk =   0.0126984
        k(    8) = (   0.0000000   0.2390555   0.4518845), wk =   0.0126984
        k(    9) = (   0.0000000   0.2390555   0.6778267), wk =   0.0126984
        k(   10) = (   0.0000000   0.2390555   0.9037690), wk =   0.0126984
        k(   11) = (   0.0000000   0.4781110   0.0000000), wk =   0.0063492
        k(   12) = (   0.0000000   0.4781110   0.2259422), wk =   0.0126984
        k(   13) = (   0.0000000   0.4781110   0.4518845), wk =   0.0126984
        k(   14) = (   0.0000000   0.4781110   0.6778267), wk =   0.0126984
        k(   15) = (   0.0000000   0.4781110   0.9037690), wk =   0.0126984
        k(   16) = (   0.0000000   0.7171664   0.0000000), wk =   0.0063492
        k(   17) = (   0.0000000   0.7171664   0.2259422), wk =   0.0126984
        k(   18) = (   0.0000000   0.7171664   0.4518845), wk =   0.0126984
        k(   19) = (   0.0000000   0.7171664   0.6778267), wk =   0.0126984
        k(   20) = (   0.0000000   0.7171664   0.9037690), wk =   0.0126984
        k(   21) = (   0.2000000   0.0000000   0.0000000), wk =   0.0063492
        k(   22) = (   0.2000000   0.0000000   0.2259422), wk =   0.0063492
        k(   23) = (   0.2000000   0.0000000   0.4518845), wk =   0.0063492
        k(   24) = (   0.2000000   0.0000000   0.6778267), wk =   0.0063492
        k(   25) = (   0.2000000   0.0000000   0.9037690), wk =   0.0063492
        k(   26) = (   0.2000000   0.2390555   0.0000000), wk =   0.0126984
        k(   27) = (   0.2000000   0.2390555   0.2259422), wk =   0.0126984
        k(   28) = (   0.2000000   0.2390555   0.4518845), wk =   0.0126984
        k(   29) = (   0.2000000   0.2390555   0.6778267), wk =   0.0126984
        k(   30) = (   0.2000000   0.2390555   0.9037690), wk =   0.0126984
        k(   31) = (   0.2000000   0.4781110   0.0000000), wk =   0.0126984
        k(   32) = (   0.2000000   0.4781110   0.2259422), wk =   0.0126984
        k(   33) = (   0.2000000   0.4781110   0.4518845), wk =   0.0126984
        k(   34) = (   0.2000000   0.4781110   0.6778267), wk =   0.0126984
        k(   35) = (   0.2000000   0.4781110   0.9037690), wk =   0.0126984
        k(   36) = (   0.2000000   0.7171664   0.0000000), wk =   0.0126984
        k(   37) = (   0.2000000   0.7171664   0.2259422), wk =   0.0126984
        k(   38) = (   0.2000000   0.7171664   0.4518845), wk =   0.0126984
        k(   39) = (   0.2000000   0.7171664   0.6778267), wk =   0.0126984
        k(   40) = (   0.2000000   0.7171664   0.9037690), wk =   0.0126984
        k(   41) = (   0.4000000   0.0000000   0.0000000), wk =   0.0063492
        k(   42) = (   0.4000000   0.0000000   0.2259422), wk =   0.0063492
        k(   43) = (   0.4000000   0.0000000   0.4518845), wk =   0.0063492
        k(   44) = (   0.4000000   0.0000000   0.6778267), wk =   0.0063492
        k(   45) = (   0.4000000   0.0000000   0.9037690), wk =   0.0063492
        k(   46) = (   0.4000000   0.2390555   0.0000000), wk =   0.0126984
        k(   47) = (   0.4000000   0.2390555   0.2259422), wk =   0.0126984
        k(   48) = (   0.4000000   0.2390555   0.4518845), wk =   0.0126984
        k(   49) = (   0.4000000   0.2390555   0.6778267), wk =   0.0126984
        k(   50) = (   0.4000000   0.2390555   0.9037690), wk =   0.0126984
        k(   51) = (   0.4000000   0.4781110   0.0000000), wk =   0.0126984
        k(   52) = (   0.4000000   0.4781110   0.2259422), wk =   0.0126984
        k(   53) = (   0.4000000   0.4781110   0.4518845), wk =   0.0126984
        k(   54) = (   0.4000000   0.4781110   0.6778267), wk =   0.0126984
        k(   55) = (   0.4000000   0.4781110   0.9037690), wk =   0.0126984
        k(   56) = (   0.4000000   0.7171664   0.0000000), wk =   0.0126984
        k(   57) = (   0.4000000   0.7171664   0.2259422), wk =   0.0126984
        k(   58) = (   0.4000000   0.7171664   0.4518845), wk =   0.0126984
        k(   59) = (   0.4000000   0.7171664   0.6778267), wk =   0.0126984
        k(   60) = (   0.4000000   0.7171664   0.9037690), wk =   0.0126984
        k(   61) = (  -0.2000000   0.0000000   0.2259422), wk =   0.0063492
        k(   62) = (  -0.2000000   0.0000000   0.4518845), wk =   0.0063492
        k(   63) = (  -0.2000000   0.0000000   0.6778267), wk =   0.0063492
        k(   64) = (  -0.2000000   0.0000000   0.9037690), wk =   0.0063492
        k(   65) = (  -0.2000000  -0.2390555   0.2259422), wk =   0.0126984
        k(   66) = (  -0.2000000  -0.2390555   0.4518845), wk =   0.0126984
        k(   67) = (  -0.2000000  -0.2390555   0.6778267), wk =   0.0126984
        k(   68) = (  -0.2000000  -0.2390555   0.9037690), wk =   0.0126984
        k(   69) = (  -0.2000000  -0.4781110   0.2259422), wk =   0.0126984
        k(   70) = (  -0.2000000  -0.4781110   0.4518845), wk =   0.0126984
        k(   71) = (  -0.2000000  -0.4781110   0.6778267), wk =   0.0126984
        k(   72) = (  -0.2000000  -0.4781110   0.9037690), wk =   0.0126984
        k(   73) = (  -0.2000000  -0.7171664   0.2259422), wk =   0.0126984
        k(   74) = (  -0.2000000  -0.7171664   0.4518845), wk =   0.0126984
        k(   75) = (  -0.2000000  -0.7171664   0.6778267), wk =   0.0126984
        k(   76) = (  -0.2000000  -0.7171664   0.9037690), wk =   0.0126984
        k(   77) = (  -0.4000000   0.0000000   0.2259422), wk =   0.0063492
        k(   78) = (  -0.4000000   0.0000000   0.4518845), wk =   0.0063492
        k(   79) = (  -0.4000000   0.0000000   0.6778267), wk =   0.0063492
        k(   80) = (  -0.4000000   0.0000000   0.9037690), wk =   0.0063492
        k(   81) = (  -0.4000000  -0.2390555   0.2259422), wk =   0.0126984
        k(   82) = (  -0.4000000  -0.2390555   0.4518845), wk =   0.0126984
        k(   83) = (  -0.4000000  -0.2390555   0.6778267), wk =   0.0126984
        k(   84) = (  -0.4000000  -0.2390555   0.9037690), wk =   0.0126984
        k(   85) = (  -0.4000000  -0.4781110   0.2259422), wk =   0.0126984
        k(   86) = (  -0.4000000  -0.4781110   0.4518845), wk =   0.0126984
        k(   87) = (  -0.4000000  -0.4781110   0.6778267), wk =   0.0126984
        k(   88) = (  -0.4000000  -0.4781110   0.9037690), wk =   0.0126984
        k(   89) = (  -0.4000000  -0.7171664   0.2259422), wk =   0.0126984
        k(   90) = (  -0.4000000  -0.7171664   0.4518845), wk =   0.0126984
        k(   91) = (  -0.4000000  -0.7171664   0.6778267), wk =   0.0126984
        k(   92) = (  -0.4000000  -0.7171664   0.9037690), wk =   0.0126984

                       cryst. coord.
        k(    1) = (   0.0000000   0.0000000   0.0000000), wk =   0.0031746
        k(    2) = (   0.0000000   0.0000000   0.1111111), wk =   0.0063492
        k(    3) = (   0.0000000   0.0000000   0.2222222), wk =   0.0063492
        k(    4) = (   0.0000000   0.0000000   0.3333333), wk =   0.0063492
        k(    5) = (   0.0000000   0.0000000   0.4444444), wk =   0.0063492
        k(    6) = (   0.0000000   0.1428571   0.0000000), wk =   0.0063492
        k(    7) = (   0.0000000   0.1428571   0.1111111), wk =   0.0126984
        k(    8) = (   0.0000000   0.1428571   0.2222222), wk =   0.0126984
        k(    9) = (   0.0000000   0.1428571   0.3333333), wk =   0.0126984
        k(   10) = (   0.0000000   0.1428571   0.4444444), wk =   0.0126984
        k(   11) = (   0.0000000   0.2857143   0.0000000), wk =   0.0063492
        k(   12) = (   0.0000000   0.2857143   0.1111111), wk =   0.0126984
        k(   13) = (   0.0000000   0.2857143   0.2222222), wk =   0.0126984
        k(   14) = (   0.0000000   0.2857143   0.3333333), wk =   0.0126984
        k(   15) = (   0.0000000   0.2857143   0.4444444), wk =   0.0126984
        k(   16) = (   0.0000000   0.4285714   0.0000000), wk =   0.0063492
        k(   17) = (   0.0000000   0.4285714   0.1111111), wk =   0.0126984
        k(   18) = (   0.0000000   0.4285714   0.2222222), wk =   0.0126984
        k(   19) = (   0.0000000   0.4285714   0.3333333), wk =   0.0126984
        k(   20) = (   0.0000000   0.4285714   0.4444444), wk =   0.0126984
        k(   21) = (   0.2000000   0.0000000   0.0000000), wk =   0.0063492
        k(   22) = (   0.2000000   0.0000000   0.1111111), wk =   0.0063492
        k(   23) = (   0.2000000   0.0000000   0.2222222), wk =   0.0063492
        k(   24) = (   0.2000000   0.0000000   0.3333333), wk =   0.0063492
        k(   25) = (   0.2000000   0.0000000   0.4444444), wk =   0.0063492
        k(   26) = (   0.2000000   0.1428571   0.0000000), wk =   0.0126984
        k(   27) = (   0.2000000   0.1428571   0.1111111), wk =   0.0126984
        k(   28) = (   0.2000000   0.1428571   0.2222222), wk =   0.0126984
        k(   29) = (   0.2000000   0.1428571   0.3333333), wk =   0.0126984
        k(   30) = (   0.2000000   0.1428571   0.4444444), wk =   0.0126984
        k(   31) = (   0.2000000   0.2857143   0.0000000), wk =   0.0126984
        k(   32) = (   0.2000000   0.2857143   0.1111111), wk =   0.0126984
        k(   33) = (   0.2000000   0.2857143   0.2222222), wk =   0.0126984
        k(   34) = (   0.2000000   0.2857143   0.3333333), wk =   0.0126984
        k(   35) = (   0.2000000   0.2857143   0.4444444), wk =   0.0126984
        k(   36) = (   0.2000000   0.4285714   0.0000000), wk =   0.0126984
        k(   37) = (   0.2000000   0.4285714   0.1111111), wk =   0.0126984
        k(   38) = (   0.2000000   0.4285714   0.2222222), wk =   0.0126984
        k(   39) = (   0.2000000   0.4285714   0.3333333), wk =   0.0126984
        k(   40) = (   0.2000000   0.4285714   0.4444444), wk =   0.0126984
        k(   41) = (   0.4000000   0.0000000   0.0000000), wk =   0.0063492
        k(   42) = (   0.4000000   0.0000000   0.1111111), wk =   0.0063492
        k(   43) = (   0.4000000   0.0000000   0.2222222), wk =   0.0063492
        k(   44) = (   0.4000000   0.0000000   0.3333333), wk =   0.0063492
        k(   45) = (   0.4000000   0.0000000   0.4444444), wk =   0.0063492
        k(   46) = (   0.4000000   0.1428571   0.0000000), wk =   0.0126984
        k(   47) = (   0.4000000   0.1428571   0.1111111), wk =   0.0126984
        k(   48) = (   0.4000000   0.1428571   0.2222222), wk =   0.0126984
        k(   49) = (   0.4000000   0.1428571   0.3333333), wk =   0.0126984
        k(   50) = (   0.4000000   0.1428571   0.4444444), wk =   0.0126984
        k(   51) = (   0.4000000   0.2857143   0.0000000), wk =   0.0126984
        k(   52) = (   0.4000000   0.2857143   0.1111111), wk =   0.0126984
        k(   53) = (   0.4000000   0.2857143   0.2222222), wk =   0.0126984
        k(   54) = (   0.4000000   0.2857143   0.3333333), wk =   0.0126984
        k(   55) = (   0.4000000   0.2857143   0.4444444), wk =   0.0126984
        k(   56) = (   0.4000000   0.4285714   0.0000000), wk =   0.0126984
        k(   57) = (   0.4000000   0.4285714   0.1111111), wk =   0.0126984
        k(   58) = (   0.4000000   0.4285714   0.2222222), wk =   0.0126984
        k(   59) = (   0.4000000   0.4285714   0.3333333), wk =   0.0126984
        k(   60) = (   0.4000000   0.4285714   0.4444444), wk =   0.0126984
        k(   61) = (  -0.2000000   0.0000000   0.1111111), wk =   0.0063492
        k(   62) = (  -0.2000000   0.0000000   0.2222222), wk =   0.0063492
        k(   63) = (  -0.2000000   0.0000000   0.3333333), wk =   0.0063492
        k(   64) = (  -0.2000000   0.0000000   0.4444444), wk =   0.0063492
        k(   65) = (  -0.2000000  -0.1428571   0.1111111), wk =   0.0126984
        k(   66) = (  -0.2000000  -0.1428571   0.2222222), wk =   0.0126984
        k(   67) = (  -0.2000000  -0.1428571   0.3333333), wk =   0.0126984
        k(   68) = (  -0.2000000  -0.1428571   0.4444444), wk =   0.0126984
        k(   69) = (  -0.2000000  -0.2857143   0.1111111), wk =   0.0126984
        k(   70) = (  -0.2000000  -0.2857143   0.2222222), wk =   0.0126984
        k(   71) = (  -0.2000000  -0.2857143   0.3333333), wk =   0.0126984
        k(   72) = (  -0.2000000  -0.2857143   0.4444444), wk =   0.0126984
        k(   73) = (  -0.2000000  -0.4285714   0.1111111), wk =   0.0126984
        k(   74) = (  -0.2000000  -0.4285714   0.2222222), wk =   0.0126984
        k(   75) = (  -0.2000000  -0.4285714   0.3333333), wk =   0.0126984
        k(   76) = (  -0.2000000  -0.4285714   0.4444444), wk =   0.0126984
        k(   77) = (  -0.4000000   0.0000000   0.1111111), wk =   0.0063492
        k(   78) = (  -0.4000000   0.0000000   0.2222222), wk =   0.0063492
        k(   79) = (  -0.4000000   0.0000000   0.3333333), wk =   0.0063492
        k(   80) = (  -0.4000000   0.0000000   0.4444444), wk =   0.0063492
        k(   81) = (  -0.4000000  -0.1428571   0.1111111), wk =   0.0126984
        k(   82) = (  -0.4000000  -0.1428571   0.2222222), wk =   0.0126984
        k(   83) = (  -0.4000000  -0.1428571   0.3333333), wk =   0.0126984
        k(   84) = (  -0.4000000  -0.1428571   0.4444444), wk =   0.0126984
        k(   85) = (  -0.4000000  -0.2857143   0.1111111), wk =   0.0126984
        k(   86) = (  -0.4000000  -0.2857143   0.2222222), wk =   0.0126984
        k(   87) = (  -0.4000000  -0.2857143   0.3333333), wk =   0.0126984
        k(   88) = (  -0.4000000  -0.2857143   0.4444444), wk =   0.0126984
        k(   89) = (  -0.4000000  -0.4285714   0.1111111), wk =   0.0126984
        k(   90) = (  -0.4000000  -0.4285714   0.2222222), wk =   0.0126984
        k(   91) = (  -0.4000000  -0.4285714   0.3333333), wk =   0.0126984
        k(   92) = (  -0.4000000  -0.4285714   0.4444444), wk =   0.0126984

     Dense  grid:  1210029 G-vectors     FFT dimensions: ( 200, 120, 100)

     Smooth grid:   272791 G-vectors     FFT dimensions: ( 125,  80,  60)

     Dynamical RAM for                 wfc:       5.63 MB

     Dynamical RAM for     wfc (w. buffer):    1042.21 MB

     Dynamical RAM for           str. fact:       6.15 MB

     Dynamical RAM for           local pot:       0.00 MB

     Dynamical RAM for          nlocal pot:      13.17 MB

     Dynamical RAM for                qrad:      10.54 MB

     Dynamical RAM for          rho,v,vnew:      19.12 MB

     Dynamical RAM for               rhoin:       6.37 MB

     Dynamical RAM for            rho*nmix:      49.24 MB

     Dynamical RAM for           G-vectors:       5.94 MB

     Dynamical RAM for          h,s,v(r/c):       3.09 MB

     Dynamical RAM for          <psi|beta>:       0.60 MB

     Dynamical RAM for                 psi:      11.27 MB

     Dynamical RAM for                hpsi:      11.27 MB

     Dynamical RAM for                spsi:      11.27 MB

     Dynamical RAM for      wfcinit/wfcrot:      13.70 MB

     Dynamical RAM for           addusdens:     312.34 MB

     Dynamical RAM for          addusforce:     358.63 MB

     Dynamical RAM for         addusstress:     311.57 MB

     Estimated static dynamical RAM per process >       1.14 GB

     Estimated max dynamical RAM per process >       1.49 GB

     Estimated total dynamical RAM >      17.92 GB

     Check: negative core charge=   -0.000003
     Generating pointlists ...
     new r_m :   0.0828 (alat units)  1.5746 (a.u.) for type    1
     new r_m :   0.0924 (alat units)  1.7559 (a.u.) for type    2
     new r_m :   0.0614 (alat units)  1.1671 (a.u.) for type    3
     new r_m :   0.0614 (alat units)  1.1671 (a.u.) for type    4

     Initial potential from superposition of free atoms

     starting charge  215.97252, renormalised to  216.00000
     Starting wfcs are  152 randomized atomic wfcs
     Checking if some PAW data can be deallocated... 
       PAW data deallocated on   10 nodes for type:  1
       PAW data deallocated on    4 nodes for type:  3

     total cpu time spent up to now is     1631.5 secs

     Self-consistent Calculation

     iteration #  1     ecut=   100.00 Ry     beta= 0.40
     Davidson diagonalization with overlap
     ethr =  1.00E-02,  avg # of iterations =  3.8

     total cpu time spent up to now is     6379.5 secs

     total energy              =   -2380.55924192 Ry
     estimated scf accuracy    <       5.74697388 Ry

     total magnetization       =    16.00 Bohr mag/cell
     absolute magnetization    =    16.01 Bohr mag/cell

     iteration #  2     ecut=   100.00 Ry     beta= 0.40
     Davidson diagonalization with overlap
     ethr =  2.66E-03,  avg # of iterations =  2.0

     negative rho (up, down):  0.000E+00 7.139E-05

     total cpu time spent up to now is    10682.1 secs

     total energy              =   -2381.88050325 Ry
     estimated scf accuracy    <       0.46809842 Ry

     total magnetization       =    16.00 Bohr mag/cell
     absolute magnetization    =    16.01 Bohr mag/cell

     iteration #  3     ecut=   100.00 Ry     beta= 0.40
     Davidson diagonalization with overlap
     ethr =  2.17E-04,  avg # of iterations =  8.7

     negative rho (up, down):  0.000E+00 8.354E-05

     total cpu time spent up to now is    15796.3 secs

     total energy              =   -2381.89025019 Ry
     estimated scf accuracy    <       3.38697309 Ry

     total magnetization       =    16.07 Bohr mag/cell
     absolute magnetization    =    16.11 Bohr mag/cell

     iteration #  4     ecut=   100.00 Ry     beta= 0.40
     Davidson diagonalization with overlap
     ethr =  2.17E-04,  avg # of iterations =  2.0

     negative rho (up, down):  0.000E+00 2.692E-04

     total cpu time spent up to now is    19588.3 secs

     total energy              =   -2381.93566068 Ry
     estimated scf accuracy    <       1.39802473 Ry

     total magnetization       =    16.00 Bohr mag/cell
     absolute magnetization    =    16.06 Bohr mag/cell

     iteration #  5     ecut=   100.00 Ry     beta= 0.40
     Davidson diagonalization with overlap
     ethr =  2.17E-04,  avg # of iterations =  1.5

     negative rho (up, down):  0.000E+00 5.201E-04

     total cpu time spent up to now is    23166.5 secs

     total energy              =   -2381.91615094 Ry
     estimated scf accuracy    <       2.01674011 Ry

     total magnetization       =    16.00 Bohr mag/cell
     absolute magnetization    =    16.06 Bohr mag/cell

     iteration #  6     ecut=   100.00 Ry     beta= 0.40
     Davidson diagonalization with overlap
     ethr =  2.17E-04,  avg # of iterations =  2.0

     negative rho (up, down):  0.000E+00 5.484E-04

     total cpu time spent up to now is    26817.7 secs

     total energy              =   -2381.99151218 Ry
     estimated scf accuracy    <       2.16636796 Ry

     total magnetization       =    16.00 Bohr mag/cell
     absolute magnetization    =    16.08 Bohr mag/cell

     iteration #  7     ecut=   100.00 Ry     beta= 0.40
     Davidson diagonalization with overlap
     ethr =  2.17E-04,  avg # of iterations =  1.0

     negative rho (up, down):  0.000E+00 5.591E-04

     total cpu time spent up to now is    30337.6 secs

     total energy              =   -2382.04439737 Ry
     estimated scf accuracy    <       0.12409266 Ry

     total magnetization       =    16.00 Bohr mag/cell
     absolute magnetization    =    16.06 Bohr mag/cell

     iteration #  8     ecut=   100.00 Ry     beta= 0.40
     Davidson diagonalization with overlap
     ethr =  5.75E-05,  avg # of iterations =  1.0

     negative rho (up, down):  0.000E+00 5.583E-04

     total cpu time spent up to now is    33861.9 secs

     total energy              =   -2382.04950199 Ry
     estimated scf accuracy    <       0.46795933 Ry

     total magnetization       =    16.00 Bohr mag/cell
     absolute magnetization    =    16.07 Bohr mag/cell

     iteration #  9     ecut=   100.00 Ry     beta= 0.40
     Davidson diagonalization with overlap
     ethr =  5.75E-05,  avg # of iterations =  1.1

     negative rho (up, down):  0.000E+00 5.595E-04

     total cpu time spent up to now is    37378.9 secs

     total energy              =   -2382.03791928 Ry
     estimated scf accuracy    <       0.47273169 Ry

     total magnetization       =    16.00 Bohr mag/cell
     absolute magnetization    =    16.07 Bohr mag/cell

     iteration # 10     ecut=   100.00 Ry     beta= 0.40
     Davidson diagonalization with overlap
     ethr =  5.75E-05,  avg # of iterations =  1.0

     negative rho (up, down):  0.000E+00 5.530E-04

     total cpu time spent up to now is    40897.3 secs

     total energy              =   -2382.04485872 Ry
     estimated scf accuracy    <       0.04998831 Ry

     total magnetization       =    16.00 Bohr mag/cell
     absolute magnetization    =    16.07 Bohr mag/cell

     iteration # 11     ecut=   100.00 Ry     beta= 0.40
     Davidson diagonalization with overlap
     ethr =  2.31E-05,  avg # of iterations =  1.3

     negative rho (up, down):  0.000E+00 5.523E-04

     total cpu time spent up to now is    44449.0 secs

     total energy              =   -2382.04568155 Ry
     estimated scf accuracy    <       0.04363912 Ry

     total magnetization       =    16.00 Bohr mag/cell
     absolute magnetization    =    16.07 Bohr mag/cell

     iteration # 12     ecut=   100.00 Ry     beta= 0.40
     Davidson diagonalization with overlap
     ethr =  2.02E-05,  avg # of iterations =  1.1

     negative rho (up, down):  0.000E+00 5.495E-04

     total cpu time spent up to now is    47964.5 secs

     total energy              =   -2382.04643266 Ry
     estimated scf accuracy    <       0.04175124 Ry

     total magnetization       =    16.00 Bohr mag/cell
     absolute magnetization    =    16.07 Bohr mag/cell

     iteration # 13     ecut=   100.00 Ry     beta= 0.40
     Davidson diagonalization with overlap
     ethr =  1.93E-05,  avg # of iterations =  1.2

     negative rho (up, down):  0.000E+00 5.529E-04

     total cpu time spent up to now is    51429.7 secs

     total energy              =   -2382.04667045 Ry
     estimated scf accuracy    <       0.07230248 Ry

     total magnetization       =    16.00 Bohr mag/cell
     absolute magnetization    =    16.08 Bohr mag/cell

     iteration # 14     ecut=   100.00 Ry     beta= 0.40
     Davidson diagonalization with overlap
     ethr =  1.93E-05,  avg # of iterations =  1.0

     negative rho (up, down):  0.000E+00 5.481E-04

     total cpu time spent up to now is    54941.0 secs

     total energy              =   -2382.04668554 Ry
     estimated scf accuracy    <       0.06867468 Ry

     total magnetization       =    16.00 Bohr mag/cell
     absolute magnetization    =    16.08 Bohr mag/cell

     iteration # 15     ecut=   100.00 Ry     beta= 0.40
     Davidson diagonalization with overlap
     ethr =  1.93E-05,  avg # of iterations =  1.0

     negative rho (up, down):  0.000E+00 4.588E-04

     total cpu time spent up to now is    58456.1 secs

     total energy              =   -2382.04871546 Ry
     estimated scf accuracy    <       0.07243579 Ry

     total magnetization       =    16.00 Bohr mag/cell
     absolute magnetization    =    16.08 Bohr mag/cell

     iteration # 16     ecut=   100.00 Ry     beta= 0.40
     Davidson diagonalization with overlap
     ethr =  1.93E-05,  avg # of iterations =  1.3

     negative rho (up, down):  0.000E+00 4.717E-04

     total cpu time spent up to now is    62027.0 secs

     total energy              =   -2382.04643886 Ry
     estimated scf accuracy    <       0.34638295 Ry

     total magnetization       =    16.00 Bohr mag/cell
     absolute magnetization    =    16.08 Bohr mag/cell

     iteration # 17     ecut=   100.00 Ry     beta= 0.40
     Davidson diagonalization with overlap
     ethr =  1.93E-05,  avg # of iterations =  1.0

     negative rho (up, down):  0.000E+00 5.887E-04

     total cpu time spent up to now is    65561.6 secs

     total energy              =   -2382.04472934 Ry
     estimated scf accuracy    <       0.05071783 Ry

     total magnetization       =    16.00 Bohr mag/cell
     absolute magnetization    =    16.08 Bohr mag/cell

     iteration # 18     ecut=   100.00 Ry     beta= 0.40
     Davidson diagonalization with overlap
     ethr =  1.93E-05,  avg # of iterations =  1.5

     negative rho (up, down):  0.000E+00 5.203E-04

     total cpu time spent up to now is    69177.5 secs

     total energy              =   -2382.04979445 Ry
     estimated scf accuracy    <       0.05586113 Ry

     total magnetization       =    16.00 Bohr mag/cell
     absolute magnetization    =    16.08 Bohr mag/cell

     iteration # 19     ecut=   100.00 Ry     beta= 0.40
     Davidson diagonalization with overlap
     ethr =  1.93E-05,  avg # of iterations =  1.5

     negative rho (up, down):  0.000E+00 5.356E-04

     total cpu time spent up to now is    72791.4 secs

     total energy              =   -2382.05102462 Ry
     estimated scf accuracy    <       0.12399298 Ry

     total magnetization       =    16.00 Bohr mag/cell
     absolute magnetization    =    16.08 Bohr mag/cell

     iteration # 20     ecut=   100.00 Ry     beta= 0.40
     Davidson diagonalization with overlap
     ethr =  1.93E-05,  avg # of iterations =  1.0

     negative rho (up, down):  0.000E+00 5.070E-04

     total cpu time spent up to now is    76314.8 secs

     total energy              =   -2382.03999128 Ry
     estimated scf accuracy    <       0.03747122 Ry

     total magnetization       =    16.00 Bohr mag/cell
     absolute magnetization    =    16.08 Bohr mag/cell

     iteration # 21     ecut=   100.00 Ry     beta= 0.40
     Davidson diagonalization with overlap
     ethr =  1.73E-05,  avg # of iterations =  2.0

     negative rho (up, down):  0.000E+00 5.671E-04

     total cpu time spent up to now is    80032.8 secs

     total energy              =   -2382.04915493 Ry
     estimated scf accuracy    <       0.03234835 Ry

     total magnetization       =    16.00 Bohr mag/cell
     absolute magnetization    =    16.07 Bohr mag/cell

     iteration # 22     ecut=   100.00 Ry     beta= 0.40
     Davidson diagonalization with overlap
     ethr =  1.50E-05,  avg # of iterations =  2.0

     negative rho (up, down):  0.000E+00 4.934E-04

     total cpu time spent up to now is    83824.0 secs

     total energy              =   -2382.05640755 Ry
     estimated scf accuracy    <       0.01822055 Ry

     total magnetization       =    16.00 Bohr mag/cell
     absolute magnetization    =    16.09 Bohr mag/cell

     iteration # 23     ecut=   100.00 Ry     beta= 0.40
     Davidson diagonalization with overlap
     ethr =  8.44E-06,  avg # of iterations =  2.1

     negative rho (up, down):  0.000E+00 4.840E-04

     total cpu time spent up to now is    87620.2 secs

     total energy              =   -2382.05696087 Ry
     estimated scf accuracy    <       0.01177377 Ry

     total magnetization       =    16.00 Bohr mag/cell
     absolute magnetization    =    16.08 Bohr mag/cell

     iteration # 24     ecut=   100.00 Ry     beta= 0.40
     Davidson diagonalization with overlap
     c_bands:  2 eigenvalues not converged
     c_bands:  1 eigenvalues not converged
     ethr =  5.45E-06,  avg # of iterations =  2.9

     negative rho (up, down):  0.000E+00 4.798E-04

     total cpu time spent up to now is    91335.8 secs

     total energy              =   -2382.05745842 Ry
     estimated scf accuracy    <       0.00266512 Ry

     total magnetization       =    16.00 Bohr mag/cell
     absolute magnetization    =    16.08 Bohr mag/cell

     iteration # 25     ecut=   100.00 Ry     beta= 0.40
     Davidson diagonalization with overlap
     c_bands:  1 eigenvalues not converged
     c_bands:  1 eigenvalues not converged
     c_bands:  1 eigenvalues not converged
     c_bands:  1 eigenvalues not converged
     c_bands:  1 eigenvalues not converged
     c_bands:  1 eigenvalues not converged
     c_bands:  1 eigenvalues not converged
     c_bands:  1 eigenvalues not converged
     c_bands:  1 eigenvalues not converged
     c_bands:  1 eigenvalues not converged
     c_bands:  1 eigenvalues not converged
     c_bands:  1 eigenvalues not converged
     c_bands:  1 eigenvalues not converged
     c_bands:  1 eigenvalues not converged
     c_bands:  1 eigenvalues not converged
     c_bands:  1 eigenvalues not converged
     ethr =  1.23E-06,  avg # of iterations =  8.1

     negative rho (up, down):  0.000E+00 4.834E-04

     total cpu time spent up to now is    95677.1 secs

     total energy              =   -2382.05811135 Ry
     estimated scf accuracy    <       0.00043264 Ry

     total magnetization       =    16.00 Bohr mag/cell
     absolute magnetization    =    16.08 Bohr mag/cell

     iteration # 26     ecut=   100.00 Ry     beta= 0.40
     Davidson diagonalization with overlap
     ethr =  2.00E-07,  avg # of iterations =  2.3

     negative rho (up, down):  0.000E+00 4.808E-04

     total cpu time spent up to now is    99411.4 secs

     total energy              =   -2382.05813350 Ry
     estimated scf accuracy    <       0.00023692 Ry

     total magnetization       =    16.00 Bohr mag/cell
     absolute magnetization    =    16.08 Bohr mag/cell

     iteration # 27     ecut=   100.00 Ry     beta= 0.40
     Davidson diagonalization with overlap
     ethr =  1.10E-07,  avg # of iterations =  2.1

     negative rho (up, down):  0.000E+00 4.819E-04

     total cpu time spent up to now is   103167.9 secs

     total energy              =   -2382.05816466 Ry
     estimated scf accuracy    <       0.00013127 Ry

     total magnetization       =    16.00 Bohr mag/cell
     absolute magnetization    =    16.08 Bohr mag/cell

     iteration # 28     ecut=   100.00 Ry     beta= 0.40
     Davidson diagonalization with overlap
     ethr =  6.08E-08,  avg # of iterations =  2.1

     negative rho (up, down):  0.000E+00 4.793E-04

     total cpu time spent up to now is   106910.7 secs

     total energy              =   -2382.05821070 Ry
     estimated scf accuracy    <       0.00017316 Ry

     total magnetization       =    16.00 Bohr mag/cell
     absolute magnetization    =    16.08 Bohr mag/cell

     iteration # 29     ecut=   100.00 Ry     beta= 0.40
     Davidson diagonalization with overlap
     ethr =  6.08E-08,  avg # of iterations =  2.1

     negative rho (up, down):  0.000E+00 4.773E-04

     total cpu time spent up to now is   110776.7 secs

     total energy              =   -2382.05824981 Ry
     estimated scf accuracy    <       0.00006993 Ry

     total magnetization       =    16.00 Bohr mag/cell
     absolute magnetization    =    16.08 Bohr mag/cell

     iteration # 30     ecut=   100.00 Ry     beta= 0.40
     Davidson diagonalization with overlap
     ethr =  3.24E-08,  avg # of iterations =  2.1

     negative rho (up, down):  0.000E+00 4.751E-04

     total cpu time spent up to now is   114701.1 secs

     total energy              =   -2382.05817331 Ry
     estimated scf accuracy    <       0.00005866 Ry

     total magnetization       =    16.00 Bohr mag/cell
     absolute magnetization    =    16.07 Bohr mag/cell

     iteration # 31     ecut=   100.00 Ry     beta= 0.40
     Davidson diagonalization with overlap
     ethr =  2.72E-08,  avg # of iterations =  3.5

     negative rho (up, down):  0.000E+00 4.728E-04

     total cpu time spent up to now is   119283.0 secs

     total energy              =   -2382.05830558 Ry
     estimated scf accuracy    <       0.00002635 Ry

     total magnetization       =    16.00 Bohr mag/cell
     absolute magnetization    =    16.07 Bohr mag/cell

     iteration # 32     ecut=   100.00 Ry     beta= 0.40
     Davidson diagonalization with overlap
     ethr =  1.22E-08,  avg # of iterations =  3.1

     negative rho (up, down):  0.000E+00 4.734E-04

     total cpu time spent up to now is   123796.6 secs

     total energy              =   -2382.05837576 Ry
     estimated scf accuracy    <       0.00000602 Ry

     total magnetization       =    16.00 Bohr mag/cell
     absolute magnetization    =    16.07 Bohr mag/cell

     iteration # 33     ecut=   100.00 Ry     beta= 0.40
     Davidson diagonalization with overlap
     ethr =  2.79E-09,  avg # of iterations =  4.0

     negative rho (up, down):  0.000E+00 4.728E-04

     total cpu time spent up to now is   128763.8 secs

     total energy              =   -2382.05840235 Ry
     estimated scf accuracy    <       0.00000131 Ry

     total magnetization       =    16.00 Bohr mag/cell
     absolute magnetization    =    16.07 Bohr mag/cell

     iteration # 34     ecut=   100.00 Ry     beta= 0.40
     Davidson diagonalization with overlap
     ethr =  6.07E-10,  avg # of iterations =  4.0

     negative rho (up, down):  0.000E+00 4.724E-04

     total cpu time spent up to now is   133638.5 secs

     total energy              =   -2382.05841776 Ry
     estimated scf accuracy    <       0.00000080 Ry

     total magnetization       =    16.00 Bohr mag/cell
     absolute magnetization    =    16.07 Bohr mag/cell

     iteration # 35     ecut=   100.00 Ry     beta= 0.40
     Davidson diagonalization with overlap
     ethr =  3.69E-10,  avg # of iterations =  2.5

     negative rho (up, down):  0.000E+00 4.719E-04

     total cpu time spent up to now is   138100.2 secs

     total energy              =   -2382.05842138 Ry
     estimated scf accuracy    <       0.00000028 Ry

     total magnetization       =    16.00 Bohr mag/cell
     absolute magnetization    =    16.07 Bohr mag/cell

     iteration # 36     ecut=   100.00 Ry     beta= 0.40
     Davidson diagonalization with overlap
     ethr =  1.28E-10,  avg # of iterations =  4.0

     negative rho (up, down):  0.000E+00 4.719E-04

     total cpu time spent up to now is   142933.8 secs

     total energy              =   -2382.05842466 Ry
     estimated scf accuracy    <       0.00000050 Ry

     total magnetization       =    16.00 Bohr mag/cell
     absolute magnetization    =    16.07 Bohr mag/cell

     iteration # 37     ecut=   100.00 Ry     beta= 0.40
     Davidson diagonalization with overlap
     ethr =  1.28E-10,  avg # of iterations =  2.8

     negative rho (up, down):  0.000E+00 4.718E-04

     total cpu time spent up to now is   147318.1 secs

     total energy              =   -2382.05842573 Ry
     estimated scf accuracy    <       0.00000014 Ry

     total magnetization       =    16.00 Bohr mag/cell
     absolute magnetization    =    16.07 Bohr mag/cell

     iteration # 38     ecut=   100.00 Ry     beta= 0.40
     Davidson diagonalization with overlap
     ethr =  6.27E-11,  avg # of iterations =  2.0

     negative rho (up, down):  0.000E+00 4.717E-04

     total cpu time spent up to now is   151204.8 secs

     total energy              =   -2382.05842585 Ry
     estimated scf accuracy    <       0.00000011 Ry

     total magnetization       =    16.00 Bohr mag/cell
     absolute magnetization    =    16.07 Bohr mag/cell

     iteration # 39     ecut=   100.00 Ry     beta= 0.40
     Davidson diagonalization with overlap
     ethr =  5.18E-11,  avg # of iterations =  2.5

     negative rho (up, down):  0.000E+00 4.717E-04

     total cpu time spent up to now is   155414.6 secs

     total energy              =   -2382.05842584 Ry
     estimated scf accuracy    <       0.00000006 Ry

     total magnetization       =    16.00 Bohr mag/cell
     absolute magnetization    =    16.07 Bohr mag/cell

     iteration # 40     ecut=   100.00 Ry     beta= 0.40
     Davidson diagonalization with overlap
     ethr =  2.80E-11,  avg # of iterations =  4.0

     negative rho (up, down):  0.000E+00 4.716E-04

     total cpu time spent up to now is   160201.1 secs

     total energy              =   -2382.05842618 Ry
     estimated scf accuracy    <       0.00000018 Ry

     total magnetization       =    16.00 Bohr mag/cell
     absolute magnetization    =    16.07 Bohr mag/cell

     iteration # 41     ecut=   100.00 Ry     beta= 0.40
     Davidson diagonalization with overlap
     ethr =  2.80E-11,  avg # of iterations =  2.5

     negative rho (up, down):  0.000E+00 4.717E-04

     total cpu time spent up to now is   164441.7 secs

     total energy              =   -2382.05842627 Ry
     estimated scf accuracy    <          6.5E-09 Ry

     total magnetization       =    16.00 Bohr mag/cell
     absolute magnetization    =    16.07 Bohr mag/cell

     iteration # 42     ecut=   100.00 Ry     beta= 0.40
     Davidson diagonalization with overlap
     ethr =  3.01E-12,  avg # of iterations =  4.0

     negative rho (up, down):  0.000E+00 4.718E-04

     total cpu time spent up to now is   169549.6 secs

     total energy              =   -2382.05842635 Ry
     estimated scf accuracy    <       0.00000002 Ry

     total magnetization       =    16.00 Bohr mag/cell
     absolute magnetization    =    16.07 Bohr mag/cell

     iteration # 43     ecut=   100.00 Ry     beta= 0.40
     Davidson diagonalization with overlap
     ethr =  3.01E-12,  avg # of iterations =  2.0

     negative rho (up, down):  0.000E+00 4.718E-04

     Magnetic moment per site:
     atom:    1    charge:    7.9449    magn:    0.0001    constr:    0.0000
     atom:    2    charge:    7.9449    magn:    0.0001    constr:    0.0000
     atom:    3    charge:    7.9449    magn:    0.0001    constr:    0.0000
     atom:    4    charge:    7.9449    magn:    0.0001    constr:    0.0000
     atom:    5    charge:   13.2608    magn:    3.3050    constr:    0.0000
     atom:    6    charge:   13.2608    magn:    3.3049    constr:    0.0000
     atom:    7    charge:   13.2608    magn:    3.3050    constr:    0.0000
     atom:    8    charge:   13.2608    magn:    3.3049    constr:    0.0000
     atom:    9    charge:    0.8269    magn:    0.0065    constr:    0.0000
     atom:   10    charge:    0.8269    magn:    0.0065    constr:    0.0000
     atom:   11    charge:    0.8269    magn:    0.0065    constr:    0.0000
     atom:   12    charge:    0.8269    magn:    0.0065    constr:    0.0000
     atom:   13    charge:    4.1464    magn:    0.0331    constr:    0.0000
     atom:   14    charge:    4.1465    magn:    0.0331    constr:    0.0000
     atom:   15    charge:    4.1465    magn:    0.0331    constr:    0.0000
     atom:   16    charge:    4.1465    magn:    0.0331    constr:    0.0000
     atom:   17    charge:    4.1826    magn:    0.0452    constr:    0.0000
     atom:   18    charge:    4.1826    magn:    0.0452    constr:    0.0000
     atom:   19    charge:    4.1826    magn:    0.0452    constr:    0.0000
     atom:   20    charge:    4.1826    magn:    0.0452    constr:    0.0000
     atom:   21    charge:    4.1725    magn:    0.0768    constr:    0.0000
     atom:   22    charge:    4.1725    magn:    0.0768    constr:    0.0000
     atom:   23    charge:    4.1725    magn:    0.0768    constr:    0.0000
     atom:   24    charge:    4.1725    magn:    0.0768    constr:    0.0000
     atom:   25    charge:    4.1725    magn:    0.0768    constr:    0.0000
     atom:   26    charge:    4.1724    magn:    0.0768    constr:    0.0000
     atom:   27    charge:    4.1725    magn:    0.0768    constr:    0.0000
     atom:   28    charge:    4.1725    magn:    0.0768    constr:    0.0000

     total cpu time spent up to now is   173478.2 secs

     End of self-consistent calculation

 ------ SPIN UP ------------


          k = 0.0000 0.0000 0.0000 ( 34089 PWs)   bands (ev):

   -79.9366 -79.9363 -79.9350 -79.9346 -46.8555 -46.8542 -46.8539 -46.8527
   -45.8412 -45.8410 -45.8398 -45.8391 -45.2986 -45.2977 -45.2969 -45.2961
   -42.0833 -42.0832 -42.0709 -42.0708 -14.6457 -14.5918 -14.4253 -14.2298
   -14.1961 -14.1886 -14.1297 -14.1236 -14.1216 -14.1188 -14.0434 -14.0428
   -14.0095 -14.0093 -13.6955 -13.6187 -11.4932 -11.4080 -11.4025 -11.3771
   -11.3501 -11.3483 -11.3204 -11.2439 -11.1286 -11.0775 -11.0625 -11.0614
    -1.3505  -0.8796  -0.6893  -0.6550   0.0278   0.5290   0.5698   0.7455
     0.8404   0.9982   1.3592   1.3611   1.3786   1.4302   1.4447   1.8086
     2.5350   2.7311   3.0525   3.1363   3.2303   3.3966   3.4669   3.5425
     3.5783   3.6099   3.6617   3.9757   4.0131   4.0853   4.2351   4.2535
     4.2626   4.2997   4.3273   4.4466   4.6288   4.6536   4.8926   4.9485
     5.0051   5.1179   5.2556   5.5567   5.5989   5.7655   5.9479   6.2166
     6.4824   6.5185   6.5585   6.8185   6.8783   6.8993   6.9266   6.9502
     7.1828   7.3902   7.6392   7.6774   7.6981   7.7560   7.8028   8.1513
     8.1868   8.2865   8.4197   8.4748  11.7065  13.7450  13.8408  14.3865
    14.9392  14.9902  15.4597  16.1949  16.3351  16.6180  16.6631  16.7485
    16.8120  16.8406

     occupation numbers 
     1.0000   1.0000   1.0000   1.0000   1.0000   1.0000   1.0000   1.0000
     1.0000   1.0000   1.0000   1.0000   1.0000   1.0000   1.0000   1.0000
     1.0000   1.0000   1.0000   1.0000   1.0000   1.0000   1.0000   1.0000
     1.0000   1.0000   1.0000   1.0000   1.0000   1.0000   1.0000   1.0000
     1.0000   1.0000   1.0000   1.0000   1.0000   1.0000   1.0000   1.0000
     1.0000   1.0000   1.0000   1.0000   1.0000   1.0000   1.0000   1.0000
     1.0000   1.0000   1.0000   1.0000   1.0000   1.0000   1.0000   1.0000
     1.0000   1.0000   1.0000   1.0000   1.0000   1.0000   1.0000   1.0000
     1.0000   1.0000   1.0000   1.0000   1.0000   1.0000   1.0000   1.0000
     1.0000   1.0000   1.0000   1.0000   1.0000   1.0000   1.0000   1.0000
     1.0000   1.0000   1.0000   1.0000   1.0000   1.0000   1.0000   1.0000
     1.0000   1.0000   1.0000   1.0000   1.0000   1.0000   1.0000   1.0000
     1.0000   1.0000   1.0000   1.0000   1.0000   1.0000   1.0000   1.0000
     1.0000   1.0000   1.0000   1.0000   1.0000   1.0000   1.0000   1.0000
     1.0000   1.0000   1.0000   1.0000   0.0000   0.0000   0.0000   0.0000
     0.0000   0.0000   0.0000   0.0000   0.0000   0.0000   0.0000   0.0000
     0.0000   0.0000

          k = 0.0000 0.0000 0.2259 ( 34083 PWs)   bands (ev):

   -79.9366 -79.9363 -79.9350 -79.9346 -46.8554 -46.8543 -46.8538 -46.8527
   -45.8412 -45.8410 -45.8398 -45.8391 -45.2986 -45.2977 -45.2969 -45.2961
   -42.0833 -42.0832 -42.0709 -42.0708 -14.6456 -14.5906 -14.4335 -14.2971
   -14.1891 -14.1620 -14.1237 -14.1192 -14.0960 -14.0638 -14.0435 -14.0429
   -14.0096 -14.0094 -13.7081 -13.6364 -11.4855 -11.4146 -11.4047 -11.3846
   -11.3584 -11.3454 -11.3228 -11.2509 -11.1183 -11.0945 -11.0787 -11.0601
    -1.3250  -0.8790  -0.6971  -0.6368   0.0947   0.5475   0.6298   0.8005
     0.8433   1.0164   1.3600   1.3703   1.3897   1.4103   1.4110   1.7905
     2.5384   2.7211   3.0540   3.0930   3.2458   3.3194   3.4651   3.4728
     3.5044   3.5823   3.7200   3.9322   4.0035   4.0155   4.1816   4.2122
     4.2312   4.2527   4.4669   4.5585   4.6645   4.6975   4.8343   4.9376
     4.9858   5.1578   5.2876   5.5531   5.6229   5.7945   5.9365   6.1914
     6.4711   6.5231   6.5413   6.8178   6.8644   6.8690   6.9071   6.9164
     7.2186   7.4097   7.6776   7.6865   7.7399   7.7701   7.8024   8.1257
     8.1657   8.2521   8.4298   8.4673  11.8580  13.7800  13.9476  14.3779
    14.9353  14.9612  15.6162  15.8748  16.3191  16.3946  16.4024  16.5837
    16.8601  16.9672

     occupation numbers 
     1.0000   1.0000   1.0000   1.0000   1.0000   1.0000   1.0000   1.0000
     1.0000   1.0000   1.0000   1.0000   1.0000   1.0000   1.0000   1.0000
     1.0000   1.0000   1.0000   1.0000   1.0000   1.0000   1.0000   1.0000
     1.0000   1.0000   1.0000   1.0000   1.0000   1.0000   1.0000   1.0000
     1.0000   1.0000   1.0000   1.0000   1.0000   1.0000   1.0000   1.0000
     1.0000   1.0000   1.0000   1.0000   1.0000   1.0000   1.0000   1.0000
     1.0000   1.0000   1.0000   1.0000   1.0000   1.0000   1.0000   1.0000
     1.0000   1.0000   1.0000   1.0000   1.0000   1.0000   1.0000   1.0000
     1.0000   1.0000   1.0000   1.0000   1.0000   1.0000   1.0000   1.0000
     1.0000   1.0000   1.0000   1.0000   1.0000   1.0000   1.0000   1.0000
     1.0000   1.0000   1.0000   1.0000   1.0000   1.0000   1.0000   1.0000
     1.0000   1.0000   1.0000   1.0000   1.0000   1.0000   1.0000   1.0000
     1.0000   1.0000   1.0000   1.0000   1.0000   1.0000   1.0000   1.0000
     1.0000   1.0000   1.0000   1.0000   1.0000   1.0000   1.0000   1.0000
     1.0000   1.0000   1.0000   1.0000   0.0000   0.0000   0.0000   0.0000
     0.0000   0.0000   0.0000   0.0000   0.0000   0.0000   0.0000   0.0000
     0.0000   0.0000

          k = 0.0000 0.0000 0.4519 ( 34060 PWs)   bands (ev):

   -79.9366 -79.9363 -79.9350 -79.9346 -46.8553 -46.8544 -46.8537 -46.8528
   -45.8412 -45.8410 -45.8398 -45.8391 -45.2985 -45.2978 -45.2969 -45.2962
   -42.0833 -42.0832 -42.0709 -42.0708 -14.6564 -14.6020 -14.4161 -14.3353
   -14.1828 -14.1547 -14.1237 -14.1201 -14.0437 -14.0433 -14.0281 -14.0099
   -14.0097 -13.9863 -13.7336 -13.6727 -11.4635 -11.4405 -11.4070 -11.3955
   -11.3795 -11.3333 -11.3298 -11.2710 -11.1591 -11.1250 -11.0883 -11.0419
    -1.2519  -0.8707  -0.7186  -0.6287   0.3040   0.6161   0.7746   0.8572
     0.9438   1.0627   1.3177   1.3553   1.3638   1.4189   1.4401   1.7336
     2.5431   2.6939   2.9872   3.0573   3.1541   3.2740   3.3292   3.3652
     3.4618   3.5064   3.7215   3.8944   3.9282   3.9469   3.9607   4.1095
     4.1990   4.2247   4.6528   4.6573   4.7252   4.8249   4.8501   4.9439
     4.9937   5.2213   5.3136   5.5390   5.6869   5.8695   5.9051   6.1473
     6.4566   6.4993   6.5329   6.7512   6.7911   6.8133   6.8490   6.9455
     7.3164   7.4729   7.7117   7.7483   7.7868   7.8015   7.8511   8.0512
     8.1028   8.1862   8.4384   8.4491  12.2594  13.8736  14.2118  14.3625
    14.9242  15.0223  15.3990  15.8644  16.1003  16.1343  16.1474  16.2681
    16.6820  16.8573

     occupation numbers 
     1.0000   1.0000   1.0000   1.0000   1.0000   1.0000   1.0000   1.0000
     1.0000   1.0000   1.0000   1.0000   1.0000   1.0000   1.0000   1.0000
     1.0000   1.0000   1.0000   1.0000   1.0000   1.0000   1.0000   1.0000
     1.0000   1.0000   1.0000   1.0000   1.0000   1.0000   1.0000   1.0000
     1.0000   1.0000   1.0000   1.0000   1.0000   1.0000   1.0000   1.0000
     1.0000   1.0000   1.0000   1.0000   1.0000   1.0000   1.0000   1.0000
     1.0000   1.0000   1.0000   1.0000   1.0000   1.0000   1.0000   1.0000
     1.0000   1.0000   1.0000   1.0000   1.0000   1.0000   1.0000   1.0000
     1.0000   1.0000   1.0000   1.0000   1.0000   1.0000   1.0000   1.0000
     1.0000   1.0000   1.0000   1.0000   1.0000   1.0000   1.0000   1.0000
     1.0000   1.0000   1.0000   1.0000   1.0000   1.0000   1.0000   1.0000
     1.0000   1.0000   1.0000   1.0000   1.0000   1.0000   1.0000   1.0000
     1.0000   1.0000   1.0000   1.0000   1.0000   1.0000   1.0000   1.0000
     1.0000   1.0000   1.0000   1.0000   1.0000   1.0000   1.0000   1.0000
     1.0000   1.0000   1.0000   1.0000   0.0000   0.0000   0.0000   0.0000
     0.0000   0.0000   0.0000   0.0000   0.0000   0.0000   0.0000   0.0000
     0.0000   0.0000

          k = 0.0000 0.0000 0.6778 ( 34088 PWs)   bands (ev):

   -79.9366 -79.9363 -79.9350 -79.9346 -46.8552 -46.8545 -46.8536 -46.8530
   -45.8412 -45.8410 -45.8397 -45.8391 -45.2985 -45.2979 -45.2968 -45.2963
   -42.0833 -42.0832 -42.0709 -42.0708 -14.6762 -14.6365 -14.3486 -14.3089
   -14.1774 -14.1458 -14.1237 -14.1213 -14.0440 -14.0437 -14.0102 -14.0100
   -14.0060 -13.9887 -13.7309 -13.6831 -11.4631 -11.4380 -11.4306 -11.3946
   -11.3814 -11.3419 -11.3239 -11.3016 -11.2333 -11.1743 -11.0600 -11.0268
    -1.1409  -0.8445  -0.7731  -0.6688   0.6261   0.7437   0.8941   0.9059
     1.1078   1.1157   1.1936   1.2747   1.3884   1.5361   1.5650   1.6414
     2.5260   2.6754   2.8364   2.9512   3.0708   3.1260   3.2666   3.3203
     3.3452   3.4205   3.4794   3.8205   3.8864   3.8882   3.9745   4.0026
     4.1643   4.2463   4.5384   4.5628   4.9055   4.9892   4.9967   5.0578
     5.0762   5.2757   5.3487   5.5035   5.6828   5.8077   6.0068   6.1708
     6.4506   6.4633   6.5509   6.6408   6.7046   6.7161   6.8681   6.9549
     7.4568   7.5817   7.7449   7.7731   7.8194   7.8274   7.9340   7.9502
     8.0010   8.1285   8.4311   8.4355  12.7974  14.0255  14.1733  14.6248
    14.8990  14.9919  15.2768  15.7497  15.7583  16.0072  16.0679  16.1804
    16.4146  16.8150

     occupation numbers 
     1.0000   1.0000   1.0000   1.0000   1.0000   1.0000   1.0000   1.0000
     1.0000   1.0000   1.0000   1.0000   1.0000   1.0000   1.0000   1.0000
     1.0000   1.0000   1.0000   1.0000   1.0000   1.0000   1.0000   1.0000
     1.0000   1.0000   1.0000   1.0000   1.0000   1.0000   1.0000   1.0000
     1.0000   1.0000   1.0000   1.0000   1.0000   1.0000   1.0000   1.0000
     1.0000   1.0000   1.0000   1.0000   1.0000   1.0000   1.0000   1.0000
     1.0000   1.0000   1.0000   1.0000   1.0000   1.0000   1.0000   1.0000
     1.0000   1.0000   1.0000   1.0000   1.0000   1.0000   1.0000   1.0000
     1.0000   1.0000   1.0000   1.0000   1.0000   1.0000   1.0000   1.0000
     1.0000   1.0000   1.0000   1.0000   1.0000   1.0000   1.0000   1.0000
     1.0000   1.0000   1.0000   1.0000   1.0000   1.0000   1.0000   1.0000
     1.0000   1.0000   1.0000   1.0000   1.0000   1.0000   1.0000   1.0000
     1.0000   1.0000   1.0000   1.0000   1.0000   1.0000   1.0000   1.0000
     1.0000   1.0000   1.0000   1.0000   1.0000   1.0000   1.0000   1.0000
     1.0000   1.0000   1.0000   1.0000   0.0000   0.0000   0.0000   0.0000
     0.0000   0.0000   0.0000   0.0000   0.0000   0.0000   0.0000   0.0000
     0.0000   0.0000

          k = 0.0000 0.0000 0.9038 ( 34082 PWs)   bands (ev):

   -79.9366 -79.9363 -79.9350 -79.9346 -46.8551 -46.8546 -46.8534 -46.8531
   -45.8412 -45.8410 -45.8397 -45.8391 -45.2984 -45.2979 -45.2967 -45.2963
   -42.0832 -42.0832 -42.0709 -42.0708 -14.6841 -14.6700 -14.2700 -14.2625
   -14.1592 -14.1272 -14.1233 -14.1224 -14.0626 -14.0519 -14.0442 -14.0441
   -14.0103 -14.0102 -13.6943 -13.6752 -11.4718 -11.4629 -11.3926 -11.3892
   -11.3630 -11.3605 -11.3539 -11.3364 -11.2496 -11.2191 -11.0363 -11.0243
    -1.0069  -0.8738  -0.7979  -0.7357   0.8631   0.9396   0.9607   0.9641
     1.0678   1.1210   1.1809   1.2445   1.4459   1.5359   1.6902   1.7101
     2.5007   2.6127   2.7044   2.8024   2.9780   3.0217   3.1169   3.1957
     3.3322   3.3678   3.5427   3.6651   3.8839   3.8878   3.9402   3.9415
     4.2715   4.3078   4.4104   4.4222   4.9976   5.0382   5.0612   5.0935
     5.3198   5.3475   5.4363   5.4569   5.5761   5.6766   6.1331   6.2106
     6.4620   6.4987   6.5578   6.5807   6.5828   6.6367   6.9026   6.9369
     7.6197   7.7215   7.7693   7.7745   7.7851   7.8394   7.8420   7.8686
     8.0299   8.0839   8.4237   8.4276  13.3623  13.8585  14.2448  14.4941
    15.0663  15.0696  15.3079  15.5018  15.7301  15.9664  15.9945  16.0732
    16.3483  16.5506

     occupation numbers 
     1.0000   1.0000   1.0000   1.0000   1.0000   1.0000   1.0000   1.0000
     1.0000   1.0000   1.0000   1.0000   1.0000   1.0000   1.0000   1.0000
     1.0000   1.0000   1.0000   1.0000   1.0000   1.0000   1.0000   1.0000
     1.0000   1.0000   1.0000   1.0000   1.0000   1.0000   1.0000   1.0000
     1.0000   1.0000   1.0000   1.0000   1.0000   1.0000   1.0000   1.0000
     1.0000   1.0000   1.0000   1.0000   1.0000   1.0000   1.0000   1.0000
     1.0000   1.0000   1.0000   1.0000   1.0000   1.0000   1.0000   1.0000
     1.0000   1.0000   1.0000   1.0000   1.0000   1.0000   1.0000   1.0000
     1.0000   1.0000   1.0000   1.0000   1.0000   1.0000   1.0000   1.0000
     1.0000   1.0000   1.0000   1.0000   1.0000   1.0000   1.0000   1.0000
     1.0000   1.0000   1.0000   1.0000   1.0000   1.0000   1.0000   1.0000
     1.0000   1.0000   1.0000   1.0000   1.0000   1.0000   1.0000   1.0000
     1.0000   1.0000   1.0000   1.0000   1.0000   1.0000   1.0000   1.0000
     1.0000   1.0000   1.0000   1.0000   1.0000   1.0000   1.0000   1.0000
     1.0000   1.0000   1.0000   1.0000   0.0000   0.0000   0.0000   0.0000
     0.0000   0.0000   0.0000   0.0000   0.0000   0.0000   0.0000   0.0000
     0.0000   0.0000

          k = 0.0000 0.2391 0.0000 ( 34090 PWs)   bands (ev):

   -79.9366 -79.9363 -79.9350 -79.9346 -46.8554 -46.8543 -46.8538 -46.8527
   -45.8412 -45.8410 -45.8398 -45.8391 -45.2986 -45.2977 -45.2969 -45.2961
   -42.0827 -42.0826 -42.0715 -42.0714 -14.6323 -14.5838 -14.4346 -14.2842
   -14.1902 -14.1831 -14.1242 -14.1170 -14.1100 -14.1029 -14.0367 -14.0253
   -14.0128 -14.0033 -13.7037 -13.6414 -11.4939 -11.4500 -11.4433 -11.3559
   -11.3501 -11.3365 -11.2858 -11.2580 -11.1139 -11.0763 -11.0636 -11.0614
    -1.3144  -0.8514  -0.7189  -0.6438   0.0772   0.5437   0.5880   0.7199
     0.9014   1.0032   1.2733   1.3446   1.4342   1.4626   1.4859   1.7800
     2.5546   2.7305   3.0225   3.0998   3.1252   3.3397   3.4556   3.5410
     3.5780   3.5900   3.7491   3.9250   3.9607   3.9938   4.2717   4.2759
     4.2842   4.3239   4.3324   4.5129   4.7079   4.7134   4.7636   4.9917
     5.0047   5.1294   5.2329   5.5557   5.5673   5.7143   5.8996   6.2102
     6.4573   6.4608   6.5791   6.7089   6.8010   6.9280   6.9902   7.1076
     7.1446   7.3510   7.6602   7.6748   7.7494   7.7502   7.8613   7.9937
     8.0003   8.4235   8.4998   8.5122  11.8679  13.8301  13.9342  14.3444
    15.0130  15.0852  15.4286  16.1220  16.3219  16.4810  16.6165  16.7418
    16.7782  16.9692

     occupation numbers 
     1.0000   1.0000   1.0000   1.0000   1.0000   1.0000   1.0000   1.0000
     1.0000   1.0000   1.0000   1.0000   1.0000   1.0000   1.0000   1.0000
     1.0000   1.0000   1.0000   1.0000   1.0000   1.0000   1.0000   1.0000
     1.0000   1.0000   1.0000   1.0000   1.0000   1.0000   1.0000   1.0000
     1.0000   1.0000   1.0000   1.0000   1.0000   1.0000   1.0000   1.0000
     1.0000   1.0000   1.0000   1.0000   1.0000   1.0000   1.0000   1.0000
     1.0000   1.0000   1.0000   1.0000   1.0000   1.0000   1.0000   1.0000
     1.0000   1.0000   1.0000   1.0000   1.0000   1.0000   1.0000   1.0000
     1.0000   1.0000   1.0000   1.0000   1.0000   1.0000   1.0000   1.0000
     1.0000   1.0000   1.0000   1.0000   1.0000   1.0000   1.0000   1.0000
     1.0000   1.0000   1.0000   1.0000   1.0000   1.0000   1.0000   1.0000
     1.0000   1.0000   1.0000   1.0000   1.0000   1.0000   1.0000   1.0000
     1.0000   1.0000   1.0000   1.0000   1.0000   1.0000   1.0000   1.0000
     1.0000   1.0000   1.0000   1.0000   1.0000   1.0000   1.0000   1.0000
     1.0000   1.0000   1.0000   1.0000   0.0000   0.0000   0.0000   0.0000
     0.0000   0.0000   0.0000   0.0000   0.0000   0.0000   0.0000   0.0000
     0.0000   0.0000

          k = 0.0000 0.2391 0.2259 ( 34083 PWs)   bands (ev):

   -79.9366 -79.9363 -79.9350 -79.9346 -46.8554 -46.8543 -46.8538 -46.8528
   -45.8412 -45.8410 -45.8398 -45.8391 -45.2985 -45.2977 -45.2969 -45.2962
   -42.0827 -42.0826 -42.0715 -42.0714 -14.6318 -14.5821 -14.4391 -14.3198
   -14.1859 -14.1709 -14.1223 -14.1212 -14.0912 -14.0807 -14.0289 -14.0203
   -14.0120 -13.9882 -13.7148 -13.6561 -11.4935 -11.4553 -11.4358 -11.3604
   -11.3472 -11.3462 -11.2997 -11.2583 -11.1062 -11.0890 -11.0790 -11.0636
    -1.2891  -0.8504  -0.7156  -0.6332   0.1410   0.5624   0.6461   0.7709
     0.9068   1.0207   1.2887   1.3548   1.4114   1.4561   1.4608   1.7608
     2.5586   2.7109   3.0178   3.0822   3.1084   3.2877   3.3938   3.4767
     3.5256   3.6717   3.7436   3.8664   3.9521   3.9844   4.1902   4.2154
     4.2562   4.3426   4.4209   4.5968   4.7232   4.7302   4.7564   4.9723
     4.9937   5.1634   5.2601   5.5524   5.5884   5.7403   5.8880   6.1828
     6.4505   6.4520   6.5820   6.7182   6.8054   6.9143   6.9432   7.0671
     7.1765   7.3647   7.6840   7.6955   7.7649   7.7863   7.8681   7.9640
     7.9833   8.3932   8.5060   8.5079  12.0139  13.8663  14.0422  14.3610
    15.0142  15.0238  15.6029  15.7931  16.2983  16.3325  16.4767  16.7036
    16.8296  16.9451

     occupation numbers 
     1.0000   1.0000   1.0000   1.0000   1.0000   1.0000   1.0000   1.0000
     1.0000   1.0000   1.0000   1.0000   1.0000   1.0000   1.0000   1.0000
     1.0000   1.0000   1.0000   1.0000   1.0000   1.0000   1.0000   1.0000
     1.0000   1.0000   1.0000   1.0000   1.0000   1.0000   1.0000   1.0000
     1.0000   1.0000   1.0000   1.0000   1.0000   1.0000   1.0000   1.0000
     1.0000   1.0000   1.0000   1.0000   1.0000   1.0000   1.0000   1.0000
     1.0000   1.0000   1.0000   1.0000   1.0000   1.0000   1.0000   1.0000
     1.0000   1.0000   1.0000   1.0000   1.0000   1.0000   1.0000   1.0000
     1.0000   1.0000   1.0000   1.0000   1.0000   1.0000   1.0000   1.0000
     1.0000   1.0000   1.0000   1.0000   1.0000   1.0000   1.0000   1.0000
     1.0000   1.0000   1.0000   1.0000   1.0000   1.0000   1.0000   1.0000
     1.0000   1.0000   1.0000   1.0000   1.0000   1.0000   1.0000   1.0000
     1.0000   1.0000   1.0000   1.0000   1.0000   1.0000   1.0000   1.0000
     1.0000   1.0000   1.0000   1.0000   1.0000   1.0000   1.0000   1.0000
     1.0000   1.0000   1.0000   1.0000   0.0000   0.0000   0.0000   0.0000
     0.0000   0.0000   0.0000   0.0000   0.0000   0.0000   0.0000   0.0000
     0.0000   0.0000

          k = 0.0000 0.2391 0.4519 ( 34077 PWs)   bands (ev):

   -79.9366 -79.9363 -79.9350 -79.9346 -46.8553 -46.8544 -46.8537 -46.8529
   -45.8412 -45.8410 -45.8397 -45.8391 -45.2985 -45.2978 -45.2969 -45.2962
   -42.0827 -42.0826 -42.0715 -42.0714 -14.6410 -14.5911 -14.4195 -14.3455
   -14.1824 -14.1647 -14.1230 -14.1223 -14.0695 -14.0671 -14.0194 -14.0190
   -13.9838 -13.9423 -13.7366 -13.6854 -11.4919 -11.4684 -11.4166 -11.3715
   -11.3674 -11.3448 -11.3225 -11.2673 -11.1454 -11.1224 -11.0831 -11.0493
    -1.2169  -0.8422  -0.7179  -0.6334   0.3419   0.6284   0.7878   0.8672
     0.9644   1.0636   1.3220   1.3541   1.3678   1.4226   1.4682   1.7052
     2.5568   2.6698   2.9655   2.9823   3.1214   3.1918   3.2457   3.3831
     3.5140   3.6277   3.7259   3.7986   3.8882   3.9660   4.0128   4.0880
     4.1868   4.3201   4.5883   4.6102   4.7681   4.8183   4.8803   4.9643
     5.0173   5.2242   5.2791   5.5377   5.6546   5.8053   5.8592   6.1232
     6.4359   6.4374   6.5909   6.7269   6.8181   6.8422   6.8744   7.0037
     7.2547   7.4077   7.7091   7.7583   7.8019   7.8296   7.8929   7.9225
     7.9263   8.3307   8.4919   8.5123  12.4031  13.9603  14.3054  14.4083
    14.9980  15.0667  15.3443  15.8763  16.0849  16.1301  16.2523  16.2927
    16.6537  16.8641

     occupation numbers 
     1.0000   1.0000   1.0000   1.0000   1.0000   1.0000   1.0000   1.0000
     1.0000   1.0000   1.0000   1.0000   1.0000   1.0000   1.0000   1.0000
     1.0000   1.0000   1.0000   1.0000   1.0000   1.0000   1.0000   1.0000
     1.0000   1.0000   1.0000   1.0000   1.0000   1.0000   1.0000   1.0000
     1.0000   1.0000   1.0000   1.0000   1.0000   1.0000   1.0000   1.0000
     1.0000   1.0000   1.0000   1.0000   1.0000   1.0000   1.0000   1.0000
     1.0000   1.0000   1.0000   1.0000   1.0000   1.0000   1.0000   1.0000
     1.0000   1.0000   1.0000   1.0000   1.0000   1.0000   1.0000   1.0000
     1.0000   1.0000   1.0000   1.0000   1.0000   1.0000   1.0000   1.0000
     1.0000   1.0000   1.0000   1.0000   1.0000   1.0000   1.0000   1.0000
     1.0000   1.0000   1.0000   1.0000   1.0000   1.0000   1.0000   1.0000
     1.0000   1.0000   1.0000   1.0000   1.0000   1.0000   1.0000   1.0000
     1.0000   1.0000   1.0000   1.0000   1.0000   1.0000   1.0000   1.0000
     1.0000   1.0000   1.0000   1.0000   1.0000   1.0000   1.0000   1.0000
     1.0000   1.0000   1.0000   1.0000   0.0000   0.0000   0.0000   0.0000
     0.0000   0.0000   0.0000   0.0000   0.0000   0.0000   0.0000   0.0000
     0.0000   0.0000

          k = 0.0000 0.2391 0.6778 ( 34083 PWs)   bands (ev):

   -79.9366 -79.9363 -79.9350 -79.9346 -46.8552 -46.8545 -46.8536 -46.8530
   -45.8412 -45.8410 -45.8397 -45.8391 -45.2985 -45.2979 -45.2968 -45.2963
   -42.0827 -42.0826 -42.0715 -42.0714 -14.6587 -14.6218 -14.3544 -14.3153
   -14.1849 -14.1673 -14.1243 -14.1222 -14.0698 -14.0685 -14.0236 -14.0228
   -13.9566 -13.9349 -13.7331 -13.6912 -11.4921 -11.4831 -11.3986 -11.3859
   -11.3711 -11.3651 -11.3281 -11.2866 -11.2076 -11.1689 -11.0613 -11.0373
    -1.1075  -0.8190  -0.7526  -0.6757   0.6545   0.7457   0.8981   0.9379
     1.1076   1.1177   1.2511   1.2600   1.3972   1.5252   1.5605   1.6292
     2.5099   2.6549   2.7983   2.8610   3.0744   3.1355   3.1564   3.3336
     3.3542   3.5335   3.5487   3.7142   3.8641   3.8735   4.0141   4.0301
     4.1319   4.3116   4.5130   4.5378   4.9014   4.9900   5.0060   5.0281
     5.1085   5.2921   5.3022   5.5015   5.6891   5.7608   5.9338   6.0881
     6.4293   6.4356   6.6080   6.7089   6.7474   6.7995   6.8517   6.9563
     7.3715   7.4837   7.7366   7.7873   7.7959   7.8160   7.8503   7.8590
     8.0255   8.2608   8.4809   8.5059  12.9283  14.1083  14.2700  14.7109
    14.9354  15.0659  15.2796  15.7770  15.8202  15.9900  16.0835  16.1912
    16.4282  16.8148

     occupation numbers 
     1.0000   1.0000   1.0000   1.0000   1.0000   1.0000   1.0000   1.0000
     1.0000   1.0000   1.0000   1.0000   1.0000   1.0000   1.0000   1.0000
     1.0000   1.0000   1.0000   1.0000   1.0000   1.0000   1.0000   1.0000
     1.0000   1.0000   1.0000   1.0000   1.0000   1.0000   1.0000   1.0000
     1.0000   1.0000   1.0000   1.0000   1.0000   1.0000   1.0000   1.0000
     1.0000   1.0000   1.0000   1.0000   1.0000   1.0000   1.0000   1.0000
     1.0000   1.0000   1.0000   1.0000   1.0000   1.0000   1.0000   1.0000
     1.0000   1.0000   1.0000   1.0000   1.0000   1.0000   1.0000   1.0000
     1.0000   1.0000   1.0000   1.0000   1.0000   1.0000   1.0000   1.0000
     1.0000   1.0000   1.0000   1.0000   1.0000   1.0000   1.0000   1.0000
     1.0000   1.0000   1.0000   1.0000   1.0000   1.0000   1.0000   1.0000
     1.0000   1.0000   1.0000   1.0000   1.0000   1.0000   1.0000   1.0000
     1.0000   1.0000   1.0000   1.0000   1.0000   1.0000   1.0000   1.0000
     1.0000   1.0000   1.0000   1.0000   1.0000   1.0000   1.0000   1.0000
     1.0000   1.0000   1.0000   1.0000   0.0000   0.0000   0.0000   0.0000
     0.0000   0.0000   0.0000   0.0000   0.0000   0.0000   0.0000   0.0000
     0.0000   0.0000

          k = 0.0000 0.2391 0.9038 ( 34099 PWs)   bands (ev):

   -79.9366 -79.9363 -79.9350 -79.9346 -46.8551 -46.8546 -46.8534 -46.8531
   -45.8412 -45.8410 -45.8397 -45.8391 -45.2984 -45.2979 -45.2967 -45.2963
   -42.0826 -42.0826 -42.0715 -42.0714 -14.6657 -14.6525 -14.2697 -14.2588
   -14.1996 -14.1881 -14.1248 -14.1225 -14.0819 -14.0786 -14.0296 -14.0291
   -13.9636 -13.9594 -13.6994 -13.6824 -11.4953 -11.4932 -11.3983 -11.3881
   -11.3763 -11.3478 -11.3461 -11.3150 -11.2288 -11.2081 -11.0436 -11.0349
    -0.9760  -0.8454  -0.7803  -0.7314   0.8608   0.9192   0.9639   1.0166
     1.1123   1.1384   1.1997   1.2416   1.4412   1.5117   1.6962   1.7023
     2.4655   2.5728   2.6752   2.7485   2.9596   3.0071   3.1615   3.1959
     3.3766   3.4292   3.5311   3.5955   3.8265   3.8417   3.9893   4.0004
     4.2382   4.3243   4.4195   4.4244   4.9894   5.0338   5.0654   5.0945
     5.2345   5.3302   5.4361   5.4873   5.6175   5.6461   6.0323   6.0829
     6.4425   6.4457   6.6358   6.6731   6.6968   6.7272   6.8835   6.9200
     7.5115   7.5878   7.6547   7.7038   7.7788   7.7888   7.8701   7.8767
     8.1158   8.1910   8.4819   8.4932  13.4821  13.9678  14.3214  14.5656
    15.1348  15.1364  15.3673  15.5692  15.7409  15.9640  15.9918  16.0554
    16.3754  16.5579

     occupation numbers 
     1.0000   1.0000   1.0000   1.0000   1.0000   1.0000   1.0000   1.0000
     1.0000   1.0000   1.0000   1.0000   1.0000   1.0000   1.0000   1.0000
     1.0000   1.0000   1.0000   1.0000   1.0000   1.0000   1.0000   1.0000
     1.0000   1.0000   1.0000   1.0000   1.0000   1.0000   1.0000   1.0000
     1.0000   1.0000   1.0000   1.0000   1.0000   1.0000   1.0000   1.0000
     1.0000   1.0000   1.0000   1.0000   1.0000   1.0000   1.0000   1.0000
     1.0000   1.0000   1.0000   1.0000   1.0000   1.0000   1.0000   1.0000
     1.0000   1.0000   1.0000   1.0000   1.0000   1.0000   1.0000   1.0000
     1.0000   1.0000   1.0000   1.0000   1.0000   1.0000   1.0000   1.0000
     1.0000   1.0000   1.0000   1.0000   1.0000   1.0000   1.0000   1.0000
     1.0000   1.0000   1.0000   1.0000   1.0000   1.0000   1.0000   1.0000
     1.0000   1.0000   1.0000   1.0000   1.0000   1.0000   1.0000   1.0000
     1.0000   1.0000   1.0000   1.0000   1.0000   1.0000   1.0000   1.0000
     1.0000   1.0000   1.0000   1.0000   1.0000   1.0000   1.0000   1.0000
     1.0000   1.0000   1.0000   1.0000   0.0000   0.0000   0.0000   0.0000
     0.0000   0.0000   0.0000   0.0000   0.0000   0.0000   0.0000   0.0000
     0.0000   0.0000

          k = 0.0000 0.4781 0.0000 ( 34064 PWs)   bands (ev):

   -79.9366 -79.9363 -79.9350 -79.9346 -46.8553 -46.8545 -46.8537 -46.8529
   -45.8412 -45.8410 -45.8397 -45.8391 -45.2985 -45.2978 -45.2968 -45.2962
   -42.0810 -42.0809 -42.0732 -42.0731 -14.5935 -14.5614 -14.4592 -14.3715
   -14.1738 -14.1679 -14.1088 -14.1080 -14.1064 -14.1036 -14.0374 -14.0369
   -13.9814 -13.9299 -13.7302 -13.7049 -11.5119 -11.4982 -11.4845 -11.3620
   -11.3252 -11.3143 -11.2837 -11.2581 -11.0855 -11.0740 -11.0664 -11.0593
    -1.2155  -0.8037  -0.7798  -0.6286   0.2157   0.5855   0.6295   0.6643
     1.0191   1.0367   1.1768   1.3094   1.4478   1.5454   1.5681   1.6994
     2.6256   2.7233   2.8035   3.0952   3.1627   3.2353   3.2478   3.4894
     3.5015   3.6668   3.7535   3.8302   3.9039   3.9613   4.1990   4.3041
     4.3508   4.4380   4.4561   4.4839   4.7003   4.7961   4.8489   5.0333
     5.0538   5.1639   5.1690   5.4446   5.5675   5.5754   5.8198   6.0133
     6.4301   6.4622   6.5235   6.6358   6.8131   6.9997   7.0327   7.1694
     7.2383   7.2719   7.6079   7.6567   7.7059   7.7729   7.8086   7.8294
     8.0669   8.5386   8.5439   8.5810  12.3039  14.0647  14.0817  14.1885
    15.0619  15.2939  15.3439  16.0830  16.3029  16.3096  16.6456  16.7697
    16.8726  17.0204

     occupation numbers 
     1.0000   1.0000   1.0000   1.0000   1.0000   1.0000   1.0000   1.0000
     1.0000   1.0000   1.0000   1.0000   1.0000   1.0000   1.0000   1.0000
     1.0000   1.0000   1.0000   1.0000   1.0000   1.0000   1.0000   1.0000
     1.0000   1.0000   1.0000   1.0000   1.0000   1.0000   1.0000   1.0000
     1.0000   1.0000   1.0000   1.0000   1.0000   1.0000   1.0000   1.0000
     1.0000   1.0000   1.0000   1.0000   1.0000   1.0000   1.0000   1.0000
     1.0000   1.0000   1.0000   1.0000   1.0000   1.0000   1.0000   1.0000
     1.0000   1.0000   1.0000   1.0000   1.0000   1.0000   1.0000   1.0000
     1.0000   1.0000   1.0000   1.0000   1.0000   1.0000   1.0000   1.0000
     1.0000   1.0000   1.0000   1.0000   1.0000   1.0000   1.0000   1.0000
     1.0000   1.0000   1.0000   1.0000   1.0000   1.0000   1.0000   1.0000
     1.0000   1.0000   1.0000   1.0000   1.0000   1.0000   1.0000   1.0000
     1.0000   1.0000   1.0000   1.0000   1.0000   1.0000   1.0000   1.0000
     1.0000   1.0000   1.0000   1.0000   1.0000   1.0000   1.0000   1.0000
     1.0000   1.0000   1.0000   1.0000   0.0000   0.0000   0.0000   0.0000
     0.0000   0.0000   0.0000   0.0000   0.0000   0.0000   0.0000   0.0000
     0.0000   0.0000

          k = 0.0000 0.4781 0.2259 ( 34091 PWs)   bands (ev):

   -79.9366 -79.9363 -79.9350 -79.9346 -46.8552 -46.8545 -46.8536 -46.8529
   -45.8412 -45.8410 -45.8397 -45.8391 -45.2985 -45.2978 -45.2968 -45.2962
[...]
     atom    1 type  2   force =     0.00000000    0.00000000    0.00000000
     atom    2 type  2   force =     0.00000000    0.00000000    0.00000000
     atom    3 type  2   force =     0.00000000    0.00000000    0.00000000
     atom    4 type  2   force =     0.00000000    0.00000000    0.00000000
     atom    5 type  1   force =    -0.07406653    0.00000000    0.06849267
     atom    6 type  1   force =     0.07404781    0.00000000    0.06849312
     atom    7 type  1   force =     0.07406653    0.00000000   -0.06849267
     atom    8 type  1   force =    -0.07404781    0.00000000   -0.06849312
     atom    9 type  4   force =     0.00598691    0.00000000    0.08105969
     atom   10 type  4   force =    -0.00589472    0.00000000    0.08098779
     atom   11 type  4   force =    -0.00598691    0.00000000   -0.08105969
     atom   12 type  4   force =     0.00589472    0.00000000   -0.08098779
     atom   13 type  3   force =     0.15400488    0.00000000   -1.45088740
     atom   14 type  3   force =    -0.15399348    0.00000000   -1.45089785
     atom   15 type  3   force =    -0.15400488    0.00000000    1.45088740
     atom   16 type  3   force =     0.15399348    0.00000000    1.45089785
     atom   17 type  3   force =     1.15728105    0.00000000   -0.70507528
     atom   18 type  3   force =    -1.15727542    0.00000000   -0.70512104
     atom   19 type  3   force =    -1.15728105    0.00000000    0.70507528
     atom   20 type  3   force =     1.15727542    0.00000000    0.70512104
     atom   21 type  3   force =    -0.62369439   -0.96153693    0.74955031
     atom   22 type  3   force =     0.62373163    0.96155105    0.74953872
     atom   23 type  3   force =     0.62369439   -0.96153693   -0.74955031
     atom   24 type  3   force =    -0.62373163    0.96155105   -0.74953872
     atom   25 type  3   force =     0.62369439    0.96153693   -0.74955031
     atom   26 type  3   force =    -0.62373163   -0.96155105   -0.74953872
     atom   27 type  3   force =    -0.62369439    0.96153693    0.74955031
     atom   28 type  3   force =     0.62373163   -0.96155105    0.74953872
     The ionic contribution  to forces
     atom    1 type  2   force =     0.00044284   -0.00007831    0.00023455
     atom    2 type  2   force =    -0.00024956    0.00019984    0.00004846
     atom    3 type  2   force =     0.00057007    0.00019778    0.00029277
     atom    4 type  2   force =    -0.00012234   -0.00008038   -0.00000976
     atom    5 type  1   force =     2.65837173   -0.00080003   -1.19218097
     atom    6 type  1   force =    -2.65638372    0.00078141   -1.19174741
     atom    7 type  1   force =    -2.65882468    0.00078141    1.19226805
     atom    8 type  1   force =     2.65652791   -0.00080003    1.19156804
     atom    9 type  4   force =    -0.65272496   -0.00018934    2.61150587
     atom   10 type  4   force =     0.65373773    0.00017793    2.61082762
     atom   11 type  4   force =     0.65284080    0.00017793   -2.61159804
     atom   12 type  4   force =    -0.65388148   -0.00018934   -2.61078828
     atom   13 type  3   force =    -3.81343345   -0.00025662    1.02294273
     atom   14 type  3   force =     3.81420582    0.00019932    1.02349285
     atom   15 type  3   force =     3.81369156    0.00019932   -1.02290284
     atom   16 type  3   force =    -3.81436233   -0.00025662   -1.02346852
     atom   17 type  3   force =    -1.66400557   -0.00024618    3.10462419
     atom   18 type  3   force =     1.66529590    0.00019135    3.10474337
     atom   19 type  3   force =     1.66379242    0.00019135   -3.10469056
     atom   20 type  3   force =    -1.66498020   -0.00024618   -3.10469203
     atom   21 type  3   force =     0.88305663    2.53613215   -1.67521977
     atom   22 type  3   force =    -0.88242723   -2.53589181   -1.67550720
     atom   23 type  3   force =    -0.88327894    2.53652371    1.67475746
     atom   24 type  3   force =     0.88239530   -2.53641879    1.67527932
     atom   25 type  3   force =    -0.88316168   -2.53607320    1.67499077
     atom   26 type  3   force =     0.88229095    2.53599099    1.67550117
     atom   27 type  3   force =     0.88316098   -2.53655996   -1.67499793
     atom   28 type  3   force =    -0.88254449    2.53634232   -1.67527389
     The local contribution  to forces
     atom    1 type  2   force =    -0.00000000   -0.00000000   -0.00000000
     atom    2 type  2   force =    -0.00462337   -0.00017000   -0.00224190
     atom    3 type  2   force =     0.00008689   -0.00183128    0.00003897
     atom    4 type  2   force =    -0.00453648   -0.00166129   -0.00228087
     atom    5 type  1   force =    -2.60131871   -0.00857346    1.11511451
     atom    6 type  1   force =     2.57959466   -0.00214337    1.11438592
     atom    7 type  1   force =     2.58001978   -0.00214336   -1.12570333
     atom    8 type  1   force =    -2.59750398   -0.00857346   -1.12530046
     atom    9 type  4   force =     0.63022542   -0.00000759   -2.58594888
     atom   10 type  4   force =    -0.63123333   -0.00000190   -2.58516902
     atom   11 type  4   force =    -0.63024332   -0.00000190    2.58600313
     atom   12 type  4   force =     0.63126225   -0.00000757    2.58531858
     atom   13 type  3   force =     3.65104270   -0.00198939    0.42477720
     atom   14 type  3   force =    -3.65639266   -0.00049735    0.42400096
     atom   15 type  3   force =    -3.65550298   -0.00049735   -0.42692577
     atom   16 type  3   force =     3.65161230   -0.00198941   -0.42670743
     atom   17 type  3   force =     0.39592820   -0.00202882   -2.37940029
     atom   18 type  3   force =    -0.40097839   -0.00050721   -2.37967497
     atom   19 type  3   force =    -0.39971225   -0.00050721    2.37726682
     atom   20 type  3   force =     0.39691146   -0.00202884    2.37696632
     atom   21 type  3   force =    -0.19410001   -1.46230988    0.88847113
     atom   22 type  3   force =     0.18848701    1.46036086    0.88886574
     atom   23 type  3   force =     0.18912352   -1.46152770   -0.89088658
     atom   24 type  3   force =    -0.19347174    1.45900611   -0.89095007
     atom   25 type  3   force =     0.18918054    1.46070034   -0.89081669
     atom   26 type  3   force =    -0.19324366   -1.46231553   -0.89122968
     atom   27 type  3   force =    -0.19432811    1.45900048    0.88819152
     atom   28 type  3   force =     0.18842998   -1.46118821    0.88893563
     The core correction contribution to forces
     atom    1 type  2   force =     0.00000000    0.00000000    0.00000000
     atom    2 type  2   force =     0.00000000    0.00000000    0.00000000
     atom    3 type  2   force =     0.00000000    0.00000000    0.00000000
     atom    4 type  2   force =     0.00000000    0.00000000    0.00000000
     atom    5 type  1   force =     0.00464037    0.00025888   -0.00222523
     atom    6 type  1   force =    -0.00394721    0.00006472   -0.00223898
     atom    7 type  1   force =    -0.00387792    0.00006472    0.00262859
     atom    8 type  1   force =     0.00456904    0.00025888    0.00261476
     atom    9 type  4   force =    -0.00063262    0.00000616   -0.01033024
     atom   10 type  4   force =     0.00064091    0.00000154   -0.01032310
     atom   11 type  4   force =     0.00064877    0.00000154    0.01033821
     atom   12 type  4   force =    -0.00062448    0.00000616    0.01033165
     atom   13 type  3   force =    -0.00194852   -0.00000107    0.01224831
     atom   14 type  3   force =     0.00194473   -0.00000027    0.01224831
     atom   15 type  3   force =     0.00194453   -0.00000027   -0.01225302
     atom   16 type  3   force =    -0.00194799   -0.00000107   -0.01225175
     atom   17 type  3   force =    -0.00791696   -0.00000117    0.00625391
     atom   18 type  3   force =     0.00790943   -0.00000029    0.00625306
     atom   19 type  3   force =     0.00791138   -0.00000029   -0.00625507
     atom   20 type  3   force =    -0.00791580   -0.00000117   -0.00625584
     atom   21 type  3   force =     0.00438745    0.00657730   -0.00610285
     atom   22 type  3   force =    -0.00439156   -0.00658072   -0.00610381
     atom   23 type  3   force =    -0.00439046    0.00657935    0.00610157
     atom   24 type  3   force =     0.00438797   -0.00658144    0.00610054
     atom   25 type  3   force =    -0.00439059   -0.00658038    0.00610163
     atom   26 type  3   force =     0.00438744    0.00657733    0.00610029
     atom   27 type  3   force =     0.00438798   -0.00658141   -0.00610310
     atom   28 type  3   force =    -0.00439142    0.00657969   -0.00610375
     The Hubbard contrib.    to forces
     atom    1 type  2   force =     0.00000000    0.00000000    0.00000000
     atom    2 type  2   force =     0.00000000    0.00000000    0.00000000
     atom    3 type  2   force =     0.00000000    0.00000000    0.00000000
     atom    4 type  2   force =     0.00000000    0.00000000    0.00000000
     atom    5 type  1   force =     0.00000000    0.00000000    0.00000000
     atom    6 type  1   force =     0.00000000    0.00000000    0.00000000
     atom    7 type  1   force =     0.00000000    0.00000000    0.00000000
     atom    8 type  1   force =     0.00000000    0.00000000    0.00000000
     atom    9 type  4   force =     0.00000000    0.00000000    0.00000000
     atom   10 type  4   force =     0.00000000    0.00000000    0.00000000
     atom   11 type  4   force =     0.00000000    0.00000000    0.00000000
     atom   12 type  4   force =     0.00000000    0.00000000    0.00000000
     atom   13 type  3   force =     0.00000000    0.00000000    0.00000000
     atom   14 type  3   force =     0.00000000    0.00000000    0.00000000
     atom   15 type  3   force =     0.00000000    0.00000000    0.00000000
     atom   16 type  3   force =     0.00000000    0.00000000    0.00000000
     atom   17 type  3   force =     0.00000000    0.00000000    0.00000000
     atom   18 type  3   force =     0.00000000    0.00000000    0.00000000
     atom   19 type  3   force =     0.00000000    0.00000000    0.00000000
     atom   20 type  3   force =     0.00000000    0.00000000    0.00000000
     atom   21 type  3   force =     0.00000000    0.00000000    0.00000000
     atom   22 type  3   force =     0.00000000    0.00000000    0.00000000
     atom   23 type  3   force =     0.00000000    0.00000000    0.00000000
     atom   24 type  3   force =     0.00000000    0.00000000    0.00000000
     atom   25 type  3   force =     0.00000000    0.00000000    0.00000000
     atom   26 type  3   force =     0.00000000    0.00000000    0.00000000
     atom   27 type  3   force =     0.00000000    0.00000000    0.00000000
     atom   28 type  3   force =     0.00000000    0.00000000    0.00000000
     The SCF correction term to forces
     atom    1 type  2   force =     0.00000000   -0.00000000    0.00000000
     atom    2 type  2   force =    -0.00000000    0.00000000   -0.00000000
     atom    3 type  2   force =     0.00000000   -0.00000000    0.00000000
     atom    4 type  2   force =    -0.00000000   -0.00000000   -0.00000000
     atom    5 type  1   force =     0.00000136   -0.00000001   -0.00000015
     atom    6 type  1   force =    -0.00000289   -0.00000000   -0.00000042
     atom    7 type  1   force =    -0.00000138   -0.00000000    0.00000014
     atom    8 type  1   force =     0.00000287   -0.00000001    0.00000041
     atom    9 type  4   force =    -0.00000026   -0.00000000   -0.00000073
     atom   10 type  4   force =    -0.00000061    0.00000000   -0.00000020
     atom   11 type  4   force =     0.00000026    0.00000000    0.00000073
     atom   12 type  4   force =     0.00000061   -0.00000000    0.00000020
     atom   13 type  3   force =    -0.00000095   -0.00000000    0.00000064
     atom   14 type  3   force =     0.00000071    0.00000000    0.00000040
     atom   15 type  3   force =     0.00000095    0.00000000   -0.00000064
     atom   16 type  3   force =    -0.00000072   -0.00000000   -0.00000041
     atom   17 type  3   force =    -0.00000170   -0.00000000    0.00000098
     atom   18 type  3   force =     0.00000057    0.00000000    0.00000158
     atom   19 type  3   force =     0.00000170    0.00000000   -0.00000098
     atom   20 type  3   force =    -0.00000058   -0.00000000   -0.00000158
     atom   21 type  3   force =    -0.00000106   -0.00000054   -0.00000053
     atom   22 type  3   force =    -0.00000025   -0.00000008   -0.00000052
     atom   23 type  3   force =     0.00000105   -0.00000054    0.00000053
     atom   24 type  3   force =     0.00000025   -0.00000008    0.00000052
     atom   25 type  3   force =     0.00000105    0.00000054    0.00000053
     atom   26 type  3   force =     0.00000025    0.00000008    0.00000052
     atom   27 type  3   force =    -0.00000106    0.00000054   -0.00000053
     atom   28 type  3   force =    -0.00000025    0.00000008   -0.00000052

     Total force =     0.518194     Total SCF correction =     0.000007


     Computing stress (Cartesian axis) and pressure


     negative rho (up, down):  0.000E+00 4.718E-04
          total   stress  (Ry/bohr**3)                   (kbar)     P=      205.66
   0.00163055   0.00000000   0.00000008          239.86        0.00        0.01
   0.00000000   0.00172499   0.00000000            0.00      253.75        0.00
   0.00000008   0.00000000   0.00083859            0.01        0.00      123.36

     kinetic stress (kbar)  34872.29      0.00      0.00
                                0.00  34729.22      0.00
                                0.00      0.00  34689.59

     local   stress (kbar)  -3789.90     -0.11      0.03
                               -0.11  -4666.67     -0.00
                                0.03     -0.00  -1085.77

     nonloc. stress (kbar) -10409.01      0.00      0.01
                                0.00 -10507.17      0.00
                                0.01      0.00 -10354.15

     hartree stress (kbar)  15558.78     -0.00     -0.03
                               -0.00  15923.55      0.00
                               -0.03      0.00  14215.43

     exc-cor stress (kbar)  -3935.53      0.00      0.00
                                0.00  -3941.78     -0.00
                                0.00     -0.00  -3931.99

     corecor stress (kbar)  -3344.86     -0.00     -0.00
                               -0.00  -3327.02      0.00
                               -0.00      0.00  -3350.43

     ewald   stress (kbar) -28711.91      0.10      0.01
                                0.10 -27956.38      0.00
                                0.01      0.00 -30059.31

     hubbard stress (kbar)      0.00      0.00      0.00
                                0.00      0.00      0.00
                                0.00      0.00      0.00

     DFT-D   stress (kbar)      0.00      0.00      0.00
                                0.00      0.00      0.00
                                0.00      0.00      0.00

     XDM     stress (kbar)      0.00      0.00      0.00
                                0.00      0.00      0.00
                                0.00      0.00      0.00

     dft-nl  stress (kbar)      0.00      0.00      0.00
                                0.00      0.00      0.00
                                0.00      0.00      0.00

     TS-vdW  stress (kbar)      0.00      0.00      0.00
                                0.00      0.00      0.00
                                0.00      0.00      0.00



     init_run     :   1337.95s CPU   1607.59s WALL (       1 calls)
     electrons    : 139683.39s CPU 171846.88s WALL (       1 calls)
     forces       :    167.02s CPU    231.22s WALL (       1 calls)
     stress       :    510.00s CPU    720.67s WALL (       1 calls)

     Called by init_run:
     wfcinit      :   1320.58s CPU   1585.57s WALL (       1 calls)
     wfcinit:atom :      0.91s CPU      1.10s WALL (     184 calls)
     wfcinit:wfcr :   1314.42s CPU   1578.14s WALL (     184 calls)
     potinit      :      7.20s CPU      9.05s WALL (       1 calls)
     hinit0       :      6.71s CPU      8.35s WALL (       1 calls)

     Called by electrons:
     c_bands      : 116717.82s CPU 143909.81s WALL (      43 calls)
     sum_band     :  22639.05s CPU  27534.98s WALL (      43 calls)
     v_of_rho     :     92.79s CPU    110.02s WALL (      44 calls)
     v_h          :      6.48s CPU      7.58s WALL (      44 calls)
     v_xc         :     89.76s CPU    107.05s WALL (      46 calls)
     newd         :    102.16s CPU    136.19s WALL (      44 calls)
     PAW_pot      :     48.46s CPU     56.90s WALL (      44 calls)
     mix_rho      :     63.11s CPU     75.10s WALL (      43 calls)

     Called by c_bands:
     init_us_2    :    141.46s CPU    182.76s WALL (   16376 calls)
     cegterg      : 115736.27s CPU 142668.69s WALL (    7912 calls)

     Called by sum_band:
     sum_band:wei :      0.45s CPU      0.67s WALL (      43 calls)
     sum_band:loo :  22382.64s CPU  27202.38s WALL (      43 calls)
     sum_band:buf :     34.66s CPU     38.30s WALL (    7912 calls)
     sum_band:ini :     57.84s CPU     72.78s WALL (    7912 calls)
     sum_band:cal :   1765.06s CPU   2132.66s WALL (    7912 calls)
     sum_band:bec :      5.32s CPU      5.82s WALL (    7912 calls)
     addusdens    :    193.13s CPU    262.73s WALL (      43 calls)
     addusd:skk   :      1.11s CPU      1.32s WALL (     129 calls)
     addusd:dgemm :     67.23s CPU    104.67s WALL (     258 calls)
     addusd:qvan2 :    121.73s CPU    152.60s WALL (     258 calls)

     Called by *egterg:
     cdiaghg      :   2808.29s CPU   3521.10s WALL (   27203 calls)
     cegterg:over :   5134.17s CPU   6200.39s WALL (   19291 calls)
     cegterg:upda :   1068.79s CPU   1352.88s WALL (   19291 calls)
     cegterg:last :   2342.29s CPU   2963.07s WALL (   13569 calls)
     h_psi        :  98953.74s CPU 122041.12s WALL (   27387 calls)
     s_psi        :   2201.38s CPU   2787.14s WALL (   27387 calls)
     g_psi        :     16.28s CPU     20.48s WALL (   19291 calls)

     Called by h_psi:
     h_psi:calbec :   4403.95s CPU   5383.21s WALL (   27387 calls)
     vloc_psi     :  92268.37s CPU 113722.08s WALL (   27387 calls)
     add_vuspsi   :   2226.40s CPU   2872.81s WALL (   27387 calls)

     General routines
     calbec       :   6369.91s CPU   7793.12s WALL (   36219 calls)
     fft          :    107.14s CPU    128.15s WALL (    1138 calls)
     ffts         :     13.58s CPU     16.62s WALL (     174 calls)
     fftw         : 112397.42s CPU 138275.52s WALL ( 5711102 calls)
     interpolate  :     14.37s CPU     17.69s WALL (      88 calls)

     Parallel routines
     fft_scatt_xy :    551.81s CPU    562.66s WALL ( 5712414 calls)
     fft_scatt_yz : 109253.94s CPU 135062.30s WALL ( 5712414 calls)

     PAW routines
     PAW_pot      :     48.46s CPU     56.90s WALL (      44 calls)
     PAW_symme    :      4.60s CPU      5.29s WALL (      87 calls)

     PWSCF        :   1d15h21m CPU   2d 0h27m WALL


   This run was terminated on:  16:14: 6   5Feb2023            

=------------------------------------------------------------------------------=
   JOB DONE.
=------------------------------------------------------------------------------=
Note: The following floating-point exceptions are signalling: IEEE_UNDERFLOW_FLAG IEEE_DENORMAL
Note: The following floating-point exceptions are signalling: IEEE_DENORMAL
Note: The following floating-point exceptions are signalling: IEEE_DENORMAL
Note: The following floating-point exceptions are signalling: IEEE_DENORMAL
Note: The following floating-point exceptions are signalling: IEEE_DENORMAL
Note: The following floating-point exceptions are signalling: IEEE_DENORMAL
Note: The following floating-point exceptions are signalling: IEEE_INVALID_FLAG IEEE_DENORMAL
Note: The following floating-point exceptions are signalling: IEEE_DENORMAL
