
     Program PWSCF v.6.7MaX starts on  4Feb2023 at 13:34:55 

     This program is part of the open-source Quantum ESPRESSO suite
     for quantum simulation of materials; please cite
         "P. Giannozzi et al., J. Phys.:Condens. Matter 21 395502 (2009);
         "P. Giannozzi et al., J. Phys.:Condens. Matter 29 465901 (2017);
          URL http://www.quantum-espresso.org", 
     in publications or presentations arising from this work. More details at
     http://www.quantum-espresso.org/quote

     Parallel version (MPI), running on    12 processors

     MPI processes distributed on     1 nodes
     R & G space division:  proc/nbgrp/npool/nimage =      12
     Reading input from scale_2dab-05.in

     Current dimensions of program PWSCF are:
     Max number of different atomic species (ntypx) = 10
     Max number of k-points (npk) =  40000
     Max angular momentum in pseudopotentials (lmaxx) =  3
     Message from routine read_pp_mesh:
     mesh size missing, using the one in header
     file Fe.pbe-spn-kjpaw_psl.0.2.1.UPF: wavefunction(s)  3D renormalized
     file O.pbe-n-kjpaw_psl.0.1.UPF: wavefunction(s)  2P renormalized

     Subspace diagonalization in iterative solution of the eigenvalue problem:
     a serial algorithm will be used

     Message from routine setup:
     using ibrav=0 with symmetry is DISCOURAGED, use correct ibrav instead

     Parallelization info
     --------------------
     sticks:   dense  smooth     PW     G-vecs:    dense   smooth      PW
     Min        1824     676    182               118941    26823    3762
     Max        1826     678    183               118942    26824    3765
     Sum       21895    8121   2193              1427303   321883   45159



     bravais-lattice index     =            0
     lattice parameter (alat)  =      20.6483  a.u.
     unit-cell volume          =    2381.7944 (a.u.)^3
     number of atoms/cell      =           28
     number of atomic types    =            4
     number of electrons       =       216.00
     number of Kohn-Sham states=          130
     kinetic-energy cutoff     =     100.0000  Ry
     charge density cutoff     =    1080.0000  Ry
     scf convergence threshold =      2.0E-10
     mixing beta               =       0.4000
     number of iterations used =            8  plain     mixing
     Exchange-correlation= PBE
                           (   1   4   3   4   0   0   0)

     celldm(1)=  20.648310  celldm(2)=   0.000000  celldm(3)=   0.000000
     celldm(4)=   0.000000  celldm(5)=   0.000000  celldm(6)=   0.000000

     crystal axes: (cart. coord. in units of alat)
               a(1) = (   1.000000   0.000000   0.000000 )  
               a(2) = (   0.000000   0.597590   0.000000 )  
               a(3) = (   0.000000   0.000000   0.452739 )  

     reciprocal axes: (cart. coord. in units 2 pi/alat)
               b(1) = (  1.000000  0.000000  0.000000 )  
               b(2) = (  0.000000  1.673388  0.000000 )  
               b(3) = (  0.000000  0.000000  2.208780 )  


     PseudoPot. # 1 for Fe read from file:
     /opt/QEpot/SSSP_precision_pseudos/Fe.pbe-spn-kjpaw_psl.0.2.1.UPF
     MD5 check sum: e86618425769142926afa95317d90200
     Pseudo is Projector augmented-wave + core cor, Zval = 16.0
     Generated using "atomic" code by A. Dal Corso  v.5.0.99 svn rev. 10869
     Shape of augmentation charge: PSQ
     Using radial grid of 1191 points,  6 beta functions with: 
                l(1) =   0
                l(2) =   0
                l(3) =   1
                l(4) =   1
                l(5) =   2
                l(6) =   2
     Q(r) pseudized with 0 coefficients 


     PseudoPot. # 2 for Na read from file:
     /opt/QEpot/SSSP_precision_pseudos/Na_ONCV_PBE-1.0.oncvpsp.upf
     MD5 check sum: 24a298df0a6742ae313db96548fdb2a4
     Pseudo is Norm-conserving, Zval =  9.0
     Generated using ONCVPSP code by D. R. Hamann
     Using radial grid of 1992 points,  4 beta functions with: 
                l(1) =   0
                l(2) =   0
                l(3) =   1
                l(4) =   1

     PseudoPot. # 3 for O  read from file:
     /opt/QEpot/SSSP_precision_pseudos/O.pbe-n-kjpaw_psl.0.1.UPF
     MD5 check sum: 0234752ac141de4415c5fc33072bef88
     Pseudo is Projector augmented-wave + core cor, Zval =  6.0
     Generated using "atomic" code by A. Dal Corso  v.5.0.99 svn rev. 10869
     Shape of augmentation charge: BESSEL
     Using radial grid of 1095 points,  4 beta functions with: 
                l(1) =   0
                l(2) =   0
                l(3) =   1
                l(4) =   1
     Q(r) pseudized with 0 coefficients 


     PseudoPot. # 4 for P  read from file:
     /opt/QEpot/SSSP_precision_pseudos/P.pbe-n-rrkjus_psl.1.0.0.UPF
     MD5 check sum: 8b930f418f0a4573dca56cd030ffe088
     Pseudo is Ultrasoft + core correction, Zval =  5.0
     Generated using "atomic" code by A. Dal Corso  v.5.1
     Using radial grid of 1147 points,  6 beta functions with: 
                l(1) =   0
                l(2) =   0
                l(3) =   1
                l(4) =   1
                l(5) =   2
                l(6) =   2
     Q(r) pseudized with 0 coefficients 


     atomic species   valence    mass     pseudopotential
        Fe            16.00    55.84500     Fe( 1.00)
        Na             9.00    22.98977     Na( 1.00)
        O              6.00    15.99940     O ( 1.00)
        P              5.00    30.97376     P ( 1.00)

     Starting magnetic structure 
     atomic species   magnetization
        Fe           0.312
        Na           0.000
        O            0.000
        P            0.000

      4 Sym. Ops., with inversion, found ( 2 have fractional translation)


                                    s                        frac. trans.

      isym =  1     identity                                     

 cryst.   s( 1) = (     1          0          0      )
                  (     0          1          0      )
                  (     0          0          1      )

 cart.    s( 1) = (  1.0000000  0.0000000  0.0000000 )
                  (  0.0000000  1.0000000  0.0000000 )
                  (  0.0000000  0.0000000  1.0000000 )


      isym =  2     180 deg rotation - cart. axis [0,1,0]        

 cryst.   s( 2) = (    -1          0          0      )    f =(  0.0000000 )
                  (     0          1          0      )       ( -0.4999980 )
                  (     0          0         -1      )       (  0.0000000 )

 cart.    s( 2) = ( -1.0000000  0.0000000  0.0000000 )    f =(  0.0000000 )
                  (  0.0000000  1.0000000  0.0000000 )       ( -0.2987938 )
                  (  0.0000000  0.0000000 -1.0000000 )       (  0.0000000 )


      isym =  3     inversion                                    

 cryst.   s( 3) = (    -1          0          0      )
                  (     0         -1          0      )
                  (     0          0         -1      )

 cart.    s( 3) = ( -1.0000000  0.0000000  0.0000000 )
                  (  0.0000000 -1.0000000  0.0000000 )
                  (  0.0000000  0.0000000 -1.0000000 )


      isym =  4     inv. 180 deg rotation - cart. axis [0,1,0]   

 cryst.   s( 4) = (     1          0          0      )    f =(  0.0000000 )
                  (     0         -1          0      )       (  0.4999980 )
                  (     0          0          1      )       (  0.0000000 )

 cart.    s( 4) = (  1.0000000  0.0000000  0.0000000 )    f =(  0.0000000 )
                  (  0.0000000 -1.0000000  0.0000000 )       (  0.2987938 )
                  (  0.0000000  0.0000000  1.0000000 )       (  0.0000000 )


   Cartesian axes

     site n.     atom                  positions (alat units)
         1           Na  tau(   1) = (   0.0000000   0.0000000   0.0000000  )
         2           Na  tau(   2) = (   0.5000030   0.0000000   0.2263706  )
         3           Na  tau(   3) = (   0.0000000   0.2987962   0.0000000  )
         4           Na  tau(   4) = (   0.5000030   0.2987962   0.2263706  )
         5           Fe  tau(   5) = (   0.2870220   0.4481948   0.4465750  )
         6           Fe  tau(   6) = (   0.2129810   0.1493981   0.2202043  )
         7           Fe  tau(   7) = (   0.7129840   0.1493981   0.0061663  )
         8           Fe  tau(   8) = (   0.7870240   0.4481948   0.2325369  )
         9           P   tau(   9) = (   0.1083410   0.4481948   0.2003880  )
        10           P   tau(  10) = (   0.3916620   0.1493981   0.4267586  )
        11           P   tau(  11) = (   0.8916650   0.1493981   0.2523533  )
        12           P   tau(  12) = (   0.6083440   0.4481948   0.0259827  )
        13           O   tau(  13) = (   0.1140120   0.4481948   0.3406514  )
        14           O   tau(  14) = (   0.3859910   0.1493981   0.1142807  )
        15           O   tau(  15) = (   0.8859940   0.1493981   0.1120904  )
        16           O   tau(  16) = (   0.6140150   0.4481948   0.3384610  )
        17           O   tau(  17) = (   0.4685140   0.4481948   0.0729452  )
        18           O   tau(  18) = (   0.0314890   0.1493981   0.2993159  )
        19           O   tau(  19) = (   0.5314920   0.1493981   0.3797960  )
        20           O   tau(  20) = (   0.9685170   0.4481948   0.1534254  )
        21           O   tau(  21) = (   0.1755910   0.5644936   0.1411702  )
        22           O   tau(  22) = (   0.3244120   0.0330993   0.3675409  )
        23           O   tau(  23) = (   0.8244150   0.2656968   0.3115711  )
        24           O   tau(  24) = (   0.6755940   0.3318961   0.0852004  )
        25           O   tau(  25) = (   0.8244150   0.0330993   0.3115711  )
        26           O   tau(  26) = (   0.6755940   0.5644936   0.0852004  )
        27           O   tau(  27) = (   0.1755910   0.3318961   0.1411702  )
        28           O   tau(  28) = (   0.3244120   0.2656968   0.3675409  )

   Crystallographic axes

     site n.     atom                  positions (cryst. coord.)
         1           Na  tau(   1) = (  0.0000000  0.0000000  0.0000000  )
         2           Na  tau(   2) = (  0.5000030  0.0000000  0.5000030  )
         3           Na  tau(   3) = (  0.0000000  0.5000020  0.0000000  )
         4           Na  tau(   4) = (  0.5000030  0.5000020  0.5000030  )
         5           Fe  tau(   5) = (  0.2870220  0.7500040  0.9863860  )
         6           Fe  tau(   6) = (  0.2129810  0.2500010  0.4863830  )
         7           Fe  tau(   7) = (  0.7129840  0.2500010  0.0136200  )
         8           Fe  tau(   8) = (  0.7870240  0.7500040  0.5136230  )
         9           P   tau(   9) = (  0.1083410  0.7500040  0.4426130  )
        10           P   tau(  10) = (  0.3916620  0.2500010  0.9426160  )
        11           P   tau(  11) = (  0.8916650  0.2500010  0.5573930  )
        12           P   tau(  12) = (  0.6083440  0.7500040  0.0573900  )
        13           O   tau(  13) = (  0.1140120  0.7500040  0.7524240  )
        14           O   tau(  14) = (  0.3859910  0.2500010  0.2524210  )
        15           O   tau(  15) = (  0.8859940  0.2500010  0.2475830  )
        16           O   tau(  16) = (  0.6140150  0.7500040  0.7475860  )
        17           O   tau(  17) = (  0.4685140  0.7500040  0.1611200  )
        18           O   tau(  18) = (  0.0314890  0.2500010  0.6611230  )
        19           O   tau(  19) = (  0.5314920  0.2500010  0.8388860  )
        20           O   tau(  20) = (  0.9685170  0.7500040  0.3388830  )
        21           O   tau(  21) = (  0.1755910  0.9446170  0.3118140  )
        22           O   tau(  22) = (  0.3244120  0.0553880  0.8118170  )
        23           O   tau(  23) = (  0.8244150  0.4446140  0.6881920  )
        24           O   tau(  24) = (  0.6755940  0.5553910  0.1881890  )
        25           O   tau(  25) = (  0.8244150  0.0553880  0.6881920  )
        26           O   tau(  26) = (  0.6755940  0.9446170  0.1881890  )
        27           O   tau(  27) = (  0.1755910  0.5553910  0.3118140  )
        28           O   tau(  28) = (  0.3244120  0.4446140  0.8118170  )

     number of k points=    92  Marzari-Vanderbilt smearing, width (Ry)=  0.0073
                       cart. coord. in units 2pi/alat
        k(    1) = (   0.0000000   0.0000000   0.0000000), wk =   0.0031746
        k(    2) = (   0.0000000   0.0000000   0.2454200), wk =   0.0063492
        k(    3) = (   0.0000000   0.0000000   0.4908401), wk =   0.0063492
        k(    4) = (   0.0000000   0.0000000   0.7362601), wk =   0.0063492
        k(    5) = (   0.0000000   0.0000000   0.9816801), wk =   0.0063492
        k(    6) = (   0.0000000   0.2390555   0.0000000), wk =   0.0063492
        k(    7) = (   0.0000000   0.2390555   0.2454200), wk =   0.0126984
        k(    8) = (   0.0000000   0.2390555   0.4908401), wk =   0.0126984
        k(    9) = (   0.0000000   0.2390555   0.7362601), wk =   0.0126984
        k(   10) = (   0.0000000   0.2390555   0.9816801), wk =   0.0126984
        k(   11) = (   0.0000000   0.4781110   0.0000000), wk =   0.0063492
        k(   12) = (   0.0000000   0.4781110   0.2454200), wk =   0.0126984
        k(   13) = (   0.0000000   0.4781110   0.4908401), wk =   0.0126984
        k(   14) = (   0.0000000   0.4781110   0.7362601), wk =   0.0126984
        k(   15) = (   0.0000000   0.4781110   0.9816801), wk =   0.0126984
        k(   16) = (   0.0000000   0.7171664   0.0000000), wk =   0.0063492
        k(   17) = (   0.0000000   0.7171664   0.2454200), wk =   0.0126984
        k(   18) = (   0.0000000   0.7171664   0.4908401), wk =   0.0126984
        k(   19) = (   0.0000000   0.7171664   0.7362601), wk =   0.0126984
        k(   20) = (   0.0000000   0.7171664   0.9816801), wk =   0.0126984
        k(   21) = (   0.2000000   0.0000000   0.0000000), wk =   0.0063492
        k(   22) = (   0.2000000   0.0000000   0.2454200), wk =   0.0063492
        k(   23) = (   0.2000000   0.0000000   0.4908401), wk =   0.0063492
        k(   24) = (   0.2000000   0.0000000   0.7362601), wk =   0.0063492
        k(   25) = (   0.2000000   0.0000000   0.9816801), wk =   0.0063492
        k(   26) = (   0.2000000   0.2390555   0.0000000), wk =   0.0126984
        k(   27) = (   0.2000000   0.2390555   0.2454200), wk =   0.0126984
        k(   28) = (   0.2000000   0.2390555   0.4908401), wk =   0.0126984
        k(   29) = (   0.2000000   0.2390555   0.7362601), wk =   0.0126984
        k(   30) = (   0.2000000   0.2390555   0.9816801), wk =   0.0126984
        k(   31) = (   0.2000000   0.4781110   0.0000000), wk =   0.0126984
        k(   32) = (   0.2000000   0.4781110   0.2454200), wk =   0.0126984
        k(   33) = (   0.2000000   0.4781110   0.4908401), wk =   0.0126984
        k(   34) = (   0.2000000   0.4781110   0.7362601), wk =   0.0126984
        k(   35) = (   0.2000000   0.4781110   0.9816801), wk =   0.0126984
        k(   36) = (   0.2000000   0.7171664   0.0000000), wk =   0.0126984
        k(   37) = (   0.2000000   0.7171664   0.2454200), wk =   0.0126984
        k(   38) = (   0.2000000   0.7171664   0.4908401), wk =   0.0126984
        k(   39) = (   0.2000000   0.7171664   0.7362601), wk =   0.0126984
        k(   40) = (   0.2000000   0.7171664   0.9816801), wk =   0.0126984
        k(   41) = (   0.4000000   0.0000000   0.0000000), wk =   0.0063492
        k(   42) = (   0.4000000   0.0000000   0.2454200), wk =   0.0063492
        k(   43) = (   0.4000000   0.0000000   0.4908401), wk =   0.0063492
        k(   44) = (   0.4000000   0.0000000   0.7362601), wk =   0.0063492
        k(   45) = (   0.4000000   0.0000000   0.9816801), wk =   0.0063492
        k(   46) = (   0.4000000   0.2390555   0.0000000), wk =   0.0126984
        k(   47) = (   0.4000000   0.2390555   0.2454200), wk =   0.0126984
        k(   48) = (   0.4000000   0.2390555   0.4908401), wk =   0.0126984
        k(   49) = (   0.4000000   0.2390555   0.7362601), wk =   0.0126984
        k(   50) = (   0.4000000   0.2390555   0.9816801), wk =   0.0126984
        k(   51) = (   0.4000000   0.4781110   0.0000000), wk =   0.0126984
        k(   52) = (   0.4000000   0.4781110   0.2454200), wk =   0.0126984
        k(   53) = (   0.4000000   0.4781110   0.4908401), wk =   0.0126984
        k(   54) = (   0.4000000   0.4781110   0.7362601), wk =   0.0126984
        k(   55) = (   0.4000000   0.4781110   0.9816801), wk =   0.0126984
        k(   56) = (   0.4000000   0.7171664   0.0000000), wk =   0.0126984
        k(   57) = (   0.4000000   0.7171664   0.2454200), wk =   0.0126984
        k(   58) = (   0.4000000   0.7171664   0.4908401), wk =   0.0126984
        k(   59) = (   0.4000000   0.7171664   0.7362601), wk =   0.0126984
        k(   60) = (   0.4000000   0.7171664   0.9816801), wk =   0.0126984
        k(   61) = (  -0.2000000   0.0000000   0.2454200), wk =   0.0063492
        k(   62) = (  -0.2000000   0.0000000   0.4908401), wk =   0.0063492
        k(   63) = (  -0.2000000   0.0000000   0.7362601), wk =   0.0063492
        k(   64) = (  -0.2000000   0.0000000   0.9816801), wk =   0.0063492
        k(   65) = (  -0.2000000  -0.2390555   0.2454200), wk =   0.0126984
        k(   66) = (  -0.2000000  -0.2390555   0.4908401), wk =   0.0126984
        k(   67) = (  -0.2000000  -0.2390555   0.7362601), wk =   0.0126984
        k(   68) = (  -0.2000000  -0.2390555   0.9816801), wk =   0.0126984
        k(   69) = (  -0.2000000  -0.4781110   0.2454200), wk =   0.0126984
        k(   70) = (  -0.2000000  -0.4781110   0.4908401), wk =   0.0126984
        k(   71) = (  -0.2000000  -0.4781110   0.7362601), wk =   0.0126984
        k(   72) = (  -0.2000000  -0.4781110   0.9816801), wk =   0.0126984
        k(   73) = (  -0.2000000  -0.7171664   0.2454200), wk =   0.0126984
        k(   74) = (  -0.2000000  -0.7171664   0.4908401), wk =   0.0126984
        k(   75) = (  -0.2000000  -0.7171664   0.7362601), wk =   0.0126984
        k(   76) = (  -0.2000000  -0.7171664   0.9816801), wk =   0.0126984
        k(   77) = (  -0.4000000   0.0000000   0.2454200), wk =   0.0063492
        k(   78) = (  -0.4000000   0.0000000   0.4908401), wk =   0.0063492
        k(   79) = (  -0.4000000   0.0000000   0.7362601), wk =   0.0063492
        k(   80) = (  -0.4000000   0.0000000   0.9816801), wk =   0.0063492
        k(   81) = (  -0.4000000  -0.2390555   0.2454200), wk =   0.0126984
        k(   82) = (  -0.4000000  -0.2390555   0.4908401), wk =   0.0126984
        k(   83) = (  -0.4000000  -0.2390555   0.7362601), wk =   0.0126984
        k(   84) = (  -0.4000000  -0.2390555   0.9816801), wk =   0.0126984
        k(   85) = (  -0.4000000  -0.4781110   0.2454200), wk =   0.0126984
        k(   86) = (  -0.4000000  -0.4781110   0.4908401), wk =   0.0126984
        k(   87) = (  -0.4000000  -0.4781110   0.7362601), wk =   0.0126984
        k(   88) = (  -0.4000000  -0.4781110   0.9816801), wk =   0.0126984
        k(   89) = (  -0.4000000  -0.7171664   0.2454200), wk =   0.0126984
        k(   90) = (  -0.4000000  -0.7171664   0.4908401), wk =   0.0126984
        k(   91) = (  -0.4000000  -0.7171664   0.7362601), wk =   0.0126984
        k(   92) = (  -0.4000000  -0.7171664   0.9816801), wk =   0.0126984

                       cryst. coord.
        k(    1) = (   0.0000000   0.0000000   0.0000000), wk =   0.0031746
        k(    2) = (   0.0000000   0.0000000   0.1111111), wk =   0.0063492
        k(    3) = (   0.0000000   0.0000000   0.2222222), wk =   0.0063492
        k(    4) = (   0.0000000   0.0000000   0.3333333), wk =   0.0063492
        k(    5) = (   0.0000000   0.0000000   0.4444444), wk =   0.0063492
        k(    6) = (   0.0000000   0.1428571   0.0000000), wk =   0.0063492
        k(    7) = (   0.0000000   0.1428571   0.1111111), wk =   0.0126984
        k(    8) = (   0.0000000   0.1428571   0.2222222), wk =   0.0126984
        k(    9) = (   0.0000000   0.1428571   0.3333333), wk =   0.0126984
        k(   10) = (   0.0000000   0.1428571   0.4444444), wk =   0.0126984
        k(   11) = (   0.0000000   0.2857143   0.0000000), wk =   0.0063492
        k(   12) = (   0.0000000   0.2857143   0.1111111), wk =   0.0126984
        k(   13) = (   0.0000000   0.2857143   0.2222222), wk =   0.0126984
        k(   14) = (   0.0000000   0.2857143   0.3333333), wk =   0.0126984
        k(   15) = (   0.0000000   0.2857143   0.4444444), wk =   0.0126984
        k(   16) = (   0.0000000   0.4285714   0.0000000), wk =   0.0063492
        k(   17) = (   0.0000000   0.4285714   0.1111111), wk =   0.0126984
        k(   18) = (   0.0000000   0.4285714   0.2222222), wk =   0.0126984
        k(   19) = (   0.0000000   0.4285714   0.3333333), wk =   0.0126984
        k(   20) = (   0.0000000   0.4285714   0.4444444), wk =   0.0126984
        k(   21) = (   0.2000000   0.0000000   0.0000000), wk =   0.0063492
        k(   22) = (   0.2000000   0.0000000   0.1111111), wk =   0.0063492
        k(   23) = (   0.2000000   0.0000000   0.2222222), wk =   0.0063492
        k(   24) = (   0.2000000   0.0000000   0.3333333), wk =   0.0063492
        k(   25) = (   0.2000000   0.0000000   0.4444444), wk =   0.0063492
        k(   26) = (   0.2000000   0.1428571   0.0000000), wk =   0.0126984
        k(   27) = (   0.2000000   0.1428571   0.1111111), wk =   0.0126984
        k(   28) = (   0.2000000   0.1428571   0.2222222), wk =   0.0126984
        k(   29) = (   0.2000000   0.1428571   0.3333333), wk =   0.0126984
        k(   30) = (   0.2000000   0.1428571   0.4444444), wk =   0.0126984
        k(   31) = (   0.2000000   0.2857143   0.0000000), wk =   0.0126984
        k(   32) = (   0.2000000   0.2857143   0.1111111), wk =   0.0126984
        k(   33) = (   0.2000000   0.2857143   0.2222222), wk =   0.0126984
        k(   34) = (   0.2000000   0.2857143   0.3333333), wk =   0.0126984
        k(   35) = (   0.2000000   0.2857143   0.4444444), wk =   0.0126984
        k(   36) = (   0.2000000   0.4285714   0.0000000), wk =   0.0126984
        k(   37) = (   0.2000000   0.4285714   0.1111111), wk =   0.0126984
        k(   38) = (   0.2000000   0.4285714   0.2222222), wk =   0.0126984
        k(   39) = (   0.2000000   0.4285714   0.3333333), wk =   0.0126984
        k(   40) = (   0.2000000   0.4285714   0.4444444), wk =   0.0126984
        k(   41) = (   0.4000000   0.0000000   0.0000000), wk =   0.0063492
        k(   42) = (   0.4000000   0.0000000   0.1111111), wk =   0.0063492
        k(   43) = (   0.4000000   0.0000000   0.2222222), wk =   0.0063492
        k(   44) = (   0.4000000   0.0000000   0.3333333), wk =   0.0063492
        k(   45) = (   0.4000000   0.0000000   0.4444444), wk =   0.0063492
        k(   46) = (   0.4000000   0.1428571   0.0000000), wk =   0.0126984
        k(   47) = (   0.4000000   0.1428571   0.1111111), wk =   0.0126984
        k(   48) = (   0.4000000   0.1428571   0.2222222), wk =   0.0126984
        k(   49) = (   0.4000000   0.1428571   0.3333333), wk =   0.0126984
        k(   50) = (   0.4000000   0.1428571   0.4444444), wk =   0.0126984
        k(   51) = (   0.4000000   0.2857143   0.0000000), wk =   0.0126984
        k(   52) = (   0.4000000   0.2857143   0.1111111), wk =   0.0126984
        k(   53) = (   0.4000000   0.2857143   0.2222222), wk =   0.0126984
        k(   54) = (   0.4000000   0.2857143   0.3333333), wk =   0.0126984
        k(   55) = (   0.4000000   0.2857143   0.4444444), wk =   0.0126984
        k(   56) = (   0.4000000   0.4285714   0.0000000), wk =   0.0126984
        k(   57) = (   0.4000000   0.4285714   0.1111111), wk =   0.0126984
        k(   58) = (   0.4000000   0.4285714   0.2222222), wk =   0.0126984
        k(   59) = (   0.4000000   0.4285714   0.3333333), wk =   0.0126984
        k(   60) = (   0.4000000   0.4285714   0.4444444), wk =   0.0126984
        k(   61) = (  -0.2000000   0.0000000   0.1111111), wk =   0.0063492
        k(   62) = (  -0.2000000   0.0000000   0.2222222), wk =   0.0063492
        k(   63) = (  -0.2000000   0.0000000   0.3333333), wk =   0.0063492
        k(   64) = (  -0.2000000   0.0000000   0.4444444), wk =   0.0063492
        k(   65) = (  -0.2000000  -0.1428571   0.1111111), wk =   0.0126984
        k(   66) = (  -0.2000000  -0.1428571   0.2222222), wk =   0.0126984
        k(   67) = (  -0.2000000  -0.1428571   0.3333333), wk =   0.0126984
        k(   68) = (  -0.2000000  -0.1428571   0.4444444), wk =   0.0126984
        k(   69) = (  -0.2000000  -0.2857143   0.1111111), wk =   0.0126984
        k(   70) = (  -0.2000000  -0.2857143   0.2222222), wk =   0.0126984
        k(   71) = (  -0.2000000  -0.2857143   0.3333333), wk =   0.0126984
        k(   72) = (  -0.2000000  -0.2857143   0.4444444), wk =   0.0126984
        k(   73) = (  -0.2000000  -0.4285714   0.1111111), wk =   0.0126984
        k(   74) = (  -0.2000000  -0.4285714   0.2222222), wk =   0.0126984
        k(   75) = (  -0.2000000  -0.4285714   0.3333333), wk =   0.0126984
        k(   76) = (  -0.2000000  -0.4285714   0.4444444), wk =   0.0126984
        k(   77) = (  -0.4000000   0.0000000   0.1111111), wk =   0.0063492
        k(   78) = (  -0.4000000   0.0000000   0.2222222), wk =   0.0063492
        k(   79) = (  -0.4000000   0.0000000   0.3333333), wk =   0.0063492
        k(   80) = (  -0.4000000   0.0000000   0.4444444), wk =   0.0063492
        k(   81) = (  -0.4000000  -0.1428571   0.1111111), wk =   0.0126984
        k(   82) = (  -0.4000000  -0.1428571   0.2222222), wk =   0.0126984
        k(   83) = (  -0.4000000  -0.1428571   0.3333333), wk =   0.0126984
        k(   84) = (  -0.4000000  -0.1428571   0.4444444), wk =   0.0126984
        k(   85) = (  -0.4000000  -0.2857143   0.1111111), wk =   0.0126984
        k(   86) = (  -0.4000000  -0.2857143   0.2222222), wk =   0.0126984
        k(   87) = (  -0.4000000  -0.2857143   0.3333333), wk =   0.0126984
        k(   88) = (  -0.4000000  -0.2857143   0.4444444), wk =   0.0126984
        k(   89) = (  -0.4000000  -0.4285714   0.1111111), wk =   0.0126984
        k(   90) = (  -0.4000000  -0.4285714   0.2222222), wk =   0.0126984
        k(   91) = (  -0.4000000  -0.4285714   0.3333333), wk =   0.0126984
        k(   92) = (  -0.4000000  -0.4285714   0.4444444), wk =   0.0126984

     Dense  grid:  1427303 G-vectors     FFT dimensions: ( 216, 144, 100)

     Smooth grid:   321883 G-vectors     FFT dimensions: ( 135,  80,  60)

     Dynamical RAM for                 wfc:       6.65 MB

     Dynamical RAM for     wfc (w. buffer):    1229.73 MB

     Dynamical RAM for           str. fact:       7.26 MB

     Dynamical RAM for           local pot:       0.00 MB

     Dynamical RAM for          nlocal pot:      15.54 MB

     Dynamical RAM for                qrad:      10.54 MB

     Dynamical RAM for          rho,v,vnew:      23.70 MB

     Dynamical RAM for               rhoin:       7.90 MB

     Dynamical RAM for            rho*nmix:      58.08 MB

     Dynamical RAM for           G-vectors:       7.01 MB

     Dynamical RAM for          h,s,v(r/c):       3.09 MB

     Dynamical RAM for          <psi|beta>:       0.60 MB

     Dynamical RAM for                 psi:      13.29 MB

     Dynamical RAM for                hpsi:      13.29 MB

     Dynamical RAM for                spsi:      13.29 MB

     Dynamical RAM for      wfcinit/wfcrot:      16.07 MB

     Dynamical RAM for           addusdens:     368.43 MB

     Dynamical RAM for          addusforce:     423.00 MB

     Dynamical RAM for         addusstress:     367.52 MB

     Estimated static dynamical RAM per process >       1.35 GB

     Estimated max dynamical RAM per process >       1.76 GB

     Estimated total dynamical RAM >      21.15 GB

     Check: negative core charge=   -0.000003
     Generating pointlists ...
     new r_m :   0.0817 (alat units)  1.6863 (a.u.) for type    1
     new r_m :   0.0893 (alat units)  1.8436 (a.u.) for type    2
     new r_m :   0.0579 (alat units)  1.1956 (a.u.) for type    3
     new r_m :   0.0579 (alat units)  1.1956 (a.u.) for type    4

     Initial potential from superposition of free atoms

     starting charge  215.97252, renormalised to  216.00000
     Starting wfcs are  152 randomized atomic wfcs
     Checking if some PAW data can be deallocated... 
       PAW data deallocated on   10 nodes for type:  1
       PAW data deallocated on    4 nodes for type:  3

     total cpu time spent up to now is     1682.9 secs

     Self-consistent Calculation

     iteration #  1     ecut=   100.00 Ry     beta= 0.40
     Davidson diagonalization with overlap
     ethr =  1.00E-02,  avg # of iterations =  3.1

     negative rho (up, down):  0.000E+00 4.365E-05

     total cpu time spent up to now is     6425.8 secs

     total energy              =   -2380.53231186 Ry
     estimated scf accuracy    <       5.81514127 Ry

     total magnetization       =    16.04 Bohr mag/cell
     absolute magnetization    =    16.06 Bohr mag/cell

     iteration #  2     ecut=   100.00 Ry     beta= 0.40
     Davidson diagonalization with overlap
     ethr =  2.69E-03,  avg # of iterations =  2.0

     negative rho (up, down):  0.000E+00 1.453E-04

     total cpu time spent up to now is    10953.6 secs

     total energy              =   -2381.93882550 Ry
     estimated scf accuracy    <       0.70710941 Ry

     total magnetization       =    16.00 Bohr mag/cell
     absolute magnetization    =    16.01 Bohr mag/cell

     iteration #  3     ecut=   100.00 Ry     beta= 0.40
     Davidson diagonalization with overlap
     ethr =  3.27E-04,  avg # of iterations =  8.9

     negative rho (up, down):  0.000E+00 1.628E-04

     total cpu time spent up to now is    15753.8 secs

     total energy              =   -2381.94420156 Ry
     estimated scf accuracy    <       5.10537191 Ry

     total magnetization       =    15.33 Bohr mag/cell
     absolute magnetization    =    15.38 Bohr mag/cell

     iteration #  4     ecut=   100.00 Ry     beta= 0.40
     Davidson diagonalization with overlap
     ethr =  3.27E-04,  avg # of iterations =  2.0

     negative rho (up, down):  0.000E+00 2.947E-04

     total cpu time spent up to now is    19559.1 secs

     total energy              =   -2382.07093106 Ry
     estimated scf accuracy    <       0.96570464 Ry

     total magnetization       =    16.00 Bohr mag/cell
     absolute magnetization    =    16.06 Bohr mag/cell

     iteration #  5     ecut=   100.00 Ry     beta= 0.40
     Davidson diagonalization with overlap
     ethr =  3.27E-04,  avg # of iterations =  1.5

     negative rho (up, down):  0.000E+00 4.598E-04

     total cpu time spent up to now is    23210.5 secs

     total energy              =   -2382.01233466 Ry
     estimated scf accuracy    <       2.27963587 Ry

     total magnetization       =    16.00 Bohr mag/cell
     absolute magnetization    =    16.06 Bohr mag/cell

     iteration #  6     ecut=   100.00 Ry     beta= 0.40
     Davidson diagonalization with overlap
     ethr =  3.27E-04,  avg # of iterations =  1.5

     negative rho (up, down):  0.000E+00 4.932E-04

     total cpu time spent up to now is    26865.2 secs

     total energy              =   -2382.14392404 Ry
     estimated scf accuracy    <       2.61144759 Ry

     total magnetization       =    16.00 Bohr mag/cell
     absolute magnetization    =    16.07 Bohr mag/cell

     iteration #  7     ecut=   100.00 Ry     beta= 0.40
     Davidson diagonalization with overlap
     ethr =  3.27E-04,  avg # of iterations =  1.0

     negative rho (up, down):  0.000E+00 5.348E-04

     total cpu time spent up to now is    30402.6 secs

     total energy              =   -2382.15970154 Ry
     estimated scf accuracy    <       0.22133521 Ry

     total magnetization       =    16.00 Bohr mag/cell
     absolute magnetization    =    16.07 Bohr mag/cell

     iteration #  8     ecut=   100.00 Ry     beta= 0.40
     Davidson diagonalization with overlap
     ethr =  1.02E-04,  avg # of iterations =  1.3

     negative rho (up, down):  0.000E+00 5.379E-04

     total cpu time spent up to now is    33975.3 secs

     total energy              =   -2382.16609351 Ry
     estimated scf accuracy    <       0.06363319 Ry

     total magnetization       =    16.00 Bohr mag/cell
     absolute magnetization    =    16.08 Bohr mag/cell

     iteration #  9     ecut=   100.00 Ry     beta= 0.40
     Davidson diagonalization with overlap
     c_bands:  1 eigenvalues not converged
     c_bands:  1 eigenvalues not converged
     c_bands:  1 eigenvalues not converged
     c_bands:  1 eigenvalues not converged
     c_bands:  1 eigenvalues not converged
     c_bands:  1 eigenvalues not converged
     c_bands:  1 eigenvalues not converged
     c_bands:  1 eigenvalues not converged
     ethr =  2.95E-05,  avg # of iterations = 10.0

     negative rho (up, down):  0.000E+00 5.376E-04

     total cpu time spent up to now is    38389.5 secs

     total energy              =   -2382.16737210 Ry
     estimated scf accuracy    <       0.06765341 Ry

     total magnetization       =    16.00 Bohr mag/cell
     absolute magnetization    =    16.08 Bohr mag/cell

     iteration # 10     ecut=   100.00 Ry     beta= 0.40
     Davidson diagonalization with overlap
     ethr =  2.95E-05,  avg # of iterations =  1.0

     negative rho (up, down):  0.000E+00 5.247E-04

     total cpu time spent up to now is    41937.7 secs

     total energy              =   -2382.17314399 Ry
     estimated scf accuracy    <       0.07344276 Ry

     total magnetization       =    16.00 Bohr mag/cell
     absolute magnetization    =    16.08 Bohr mag/cell

     iteration # 11     ecut=   100.00 Ry     beta= 0.40
     Davidson diagonalization with overlap
     ethr =  2.95E-05,  avg # of iterations =  2.0

     negative rho (up, down):  0.000E+00 5.451E-04

     total cpu time spent up to now is    45699.3 secs

     total energy              =   -2382.17790701 Ry
     estimated scf accuracy    <       0.02652253 Ry

     total magnetization       =    16.00 Bohr mag/cell
     absolute magnetization    =    16.09 Bohr mag/cell

     iteration # 12     ecut=   100.00 Ry     beta= 0.40
     Davidson diagonalization with overlap
     c_bands:  1 eigenvalues not converged
     c_bands:  1 eigenvalues not converged
     ethr =  1.23E-05,  avg # of iterations =  3.9

     negative rho (up, down):  0.000E+00 5.525E-04

     total cpu time spent up to now is    49599.5 secs

     total energy              =   -2382.17953252 Ry
     estimated scf accuracy    <       0.05356775 Ry

     total magnetization       =    16.00 Bohr mag/cell
     absolute magnetization    =    16.10 Bohr mag/cell

     iteration # 13     ecut=   100.00 Ry     beta= 0.40
     Davidson diagonalization with overlap
     ethr =  1.23E-05,  avg # of iterations =  1.0

     negative rho (up, down):  0.000E+00 5.511E-04

     total cpu time spent up to now is    53144.4 secs

     total energy              =   -2382.17967728 Ry
     estimated scf accuracy    <       0.03884226 Ry

     total magnetization       =    16.00 Bohr mag/cell
     absolute magnetization    =    16.10 Bohr mag/cell

     iteration # 14     ecut=   100.00 Ry     beta= 0.40
     Davidson diagonalization with overlap
     ethr =  1.23E-05,  avg # of iterations =  1.0

     negative rho (up, down):  0.000E+00 5.519E-04

     total cpu time spent up to now is    56705.0 secs

     total energy              =   -2382.17919088 Ry
     estimated scf accuracy    <       0.03645256 Ry

     total magnetization       =    16.00 Bohr mag/cell
     absolute magnetization    =    16.10 Bohr mag/cell

     iteration # 15     ecut=   100.00 Ry     beta= 0.40
     Davidson diagonalization with overlap
     ethr =  1.23E-05,  avg # of iterations =  1.0

     negative rho (up, down):  0.000E+00 5.478E-04

     total cpu time spent up to now is    60267.4 secs

     total energy              =   -2382.17875440 Ry
     estimated scf accuracy    <       0.04869425 Ry

     total magnetization       =    16.00 Bohr mag/cell
     absolute magnetization    =    16.10 Bohr mag/cell

     iteration # 16     ecut=   100.00 Ry     beta= 0.40
     Davidson diagonalization with overlap
     c_bands:  1 eigenvalues not converged
     ethr =  1.23E-05,  avg # of iterations =  2.3

     negative rho (up, down):  0.000E+00 5.762E-04

     total cpu time spent up to now is    64134.6 secs

     total energy              =   -2382.18141635 Ry
     estimated scf accuracy    <       0.01910054 Ry

     total magnetization       =    16.00 Bohr mag/cell
     absolute magnetization    =    16.09 Bohr mag/cell

     iteration # 17     ecut=   100.00 Ry     beta= 0.40
     Davidson diagonalization with overlap
     ethr =  8.84E-06,  avg # of iterations =  1.1

     negative rho (up, down):  0.000E+00 5.796E-04

     total cpu time spent up to now is    67709.2 secs

     total energy              =   -2382.18205160 Ry
     estimated scf accuracy    <       0.00304657 Ry

     total magnetization       =    16.00 Bohr mag/cell
     absolute magnetization    =    16.09 Bohr mag/cell

     iteration # 18     ecut=   100.00 Ry     beta= 0.40
     Davidson diagonalization with overlap
     c_bands:  1 eigenvalues not converged
     c_bands:  1 eigenvalues not converged
     c_bands:  1 eigenvalues not converged
     c_bands:  1 eigenvalues not converged
     c_bands:  1 eigenvalues not converged
     c_bands:  1 eigenvalues not converged
     c_bands:  1 eigenvalues not converged
     c_bands:  2 eigenvalues not converged
     c_bands:  1 eigenvalues not converged
     ethr =  1.41E-06,  avg # of iterations =  7.8

     negative rho (up, down):  0.000E+00 5.782E-04

     total cpu time spent up to now is    71928.6 secs

     total energy              =   -2382.18216764 Ry
     estimated scf accuracy    <       0.00024439 Ry

     total magnetization       =    16.00 Bohr mag/cell
     absolute magnetization    =    16.09 Bohr mag/cell

     iteration # 19     ecut=   100.00 Ry     beta= 0.40
     Davidson diagonalization with overlap
     ethr =  1.13E-07,  avg # of iterations =  3.8

     negative rho (up, down):  0.000E+00 5.770E-04

     total cpu time spent up to now is    75974.4 secs

     total energy              =   -2382.18219202 Ry
     estimated scf accuracy    <       0.00005217 Ry

     total magnetization       =    16.00 Bohr mag/cell
     absolute magnetization    =    16.09 Bohr mag/cell

     iteration # 20     ecut=   100.00 Ry     beta= 0.40
     Davidson diagonalization with overlap
     ethr =  2.42E-08,  avg # of iterations =  4.5

     negative rho (up, down):  0.000E+00 5.769E-04

     total cpu time spent up to now is    80458.6 secs

     total energy              =   -2382.18220419 Ry
     estimated scf accuracy    <       0.00000253 Ry

     total magnetization       =    16.00 Bohr mag/cell
     absolute magnetization    =    16.09 Bohr mag/cell

     iteration # 21     ecut=   100.00 Ry     beta= 0.40
     Davidson diagonalization with overlap
     ethr =  1.17E-09,  avg # of iterations =  3.7

     negative rho (up, down):  0.000E+00 5.764E-04

     total cpu time spent up to now is    85173.8 secs

     total energy              =   -2382.18220588 Ry
     estimated scf accuracy    <       0.00001070 Ry

     total magnetization       =    16.00 Bohr mag/cell
     absolute magnetization    =    16.09 Bohr mag/cell

     iteration # 22     ecut=   100.00 Ry     beta= 0.40
     Davidson diagonalization with overlap
     ethr =  1.17E-09,  avg # of iterations =  1.6

     negative rho (up, down):  0.000E+00 5.763E-04

     total cpu time spent up to now is    88865.9 secs

     total energy              =   -2382.18220673 Ry
     estimated scf accuracy    <       0.00000720 Ry

     total magnetization       =    16.00 Bohr mag/cell
     absolute magnetization    =    16.09 Bohr mag/cell

     iteration # 23     ecut=   100.00 Ry     beta= 0.40
     Davidson diagonalization with overlap
     ethr =  1.17E-09,  avg # of iterations =  2.0

     negative rho (up, down):  0.000E+00 5.763E-04

     total cpu time spent up to now is    92768.1 secs

     total energy              =   -2382.18220676 Ry
     estimated scf accuracy    <       0.00000200 Ry

     total magnetization       =    16.00 Bohr mag/cell
     absolute magnetization    =    16.09 Bohr mag/cell

     iteration # 24     ecut=   100.00 Ry     beta= 0.40
     Davidson diagonalization with overlap
     ethr =  9.25E-10,  avg # of iterations =  2.6

     negative rho (up, down):  0.000E+00 5.767E-04

     total cpu time spent up to now is    97014.6 secs

     total energy              =   -2382.18220964 Ry
     estimated scf accuracy    <       0.00000231 Ry

     total magnetization       =    16.00 Bohr mag/cell
     absolute magnetization    =    16.09 Bohr mag/cell

     iteration # 25     ecut=   100.00 Ry     beta= 0.40
     Davidson diagonalization with overlap
     ethr =  9.25E-10,  avg # of iterations =  2.0

     negative rho (up, down):  0.000E+00 5.773E-04

     total cpu time spent up to now is   100974.4 secs

     total energy              =   -2382.18220405 Ry
     estimated scf accuracy    <       0.00000042 Ry

     total magnetization       =    16.00 Bohr mag/cell
     absolute magnetization    =    16.09 Bohr mag/cell

     iteration # 26     ecut=   100.00 Ry     beta= 0.40
     Davidson diagonalization with overlap
     ethr =  1.96E-10,  avg # of iterations =  5.3

     negative rho (up, down):  0.000E+00 5.774E-04

     total cpu time spent up to now is   106210.5 secs

     total energy              =   -2382.18221239 Ry
     estimated scf accuracy    <       0.00000011 Ry

     total magnetization       =    16.00 Bohr mag/cell
     absolute magnetization    =    16.09 Bohr mag/cell

     iteration # 27     ecut=   100.00 Ry     beta= 0.40
     Davidson diagonalization with overlap
     ethr =  4.92E-11,  avg # of iterations =  3.9

     negative rho (up, down):  0.000E+00 5.774E-04

     total cpu time spent up to now is   111042.2 secs

     total energy              =   -2382.18221361 Ry
     estimated scf accuracy    <       0.00000004 Ry

     total magnetization       =    16.00 Bohr mag/cell
     absolute magnetization    =    16.09 Bohr mag/cell

     iteration # 28     ecut=   100.00 Ry     beta= 0.40
     Davidson diagonalization with overlap
     ethr =  1.70E-11,  avg # of iterations =  3.6

     negative rho (up, down):  0.000E+00 5.773E-04

     total cpu time spent up to now is   115743.1 secs

     total energy              =   -2382.18221405 Ry
     estimated scf accuracy    <       0.00000007 Ry

     total magnetization       =    16.00 Bohr mag/cell
     absolute magnetization    =    16.09 Bohr mag/cell

     iteration # 29     ecut=   100.00 Ry     beta= 0.40
     Davidson diagonalization with overlap
     ethr =  1.70E-11,  avg # of iterations =  2.0

     negative rho (up, down):  0.000E+00 5.773E-04

     total cpu time spent up to now is   119637.6 secs

     total energy              =   -2382.18221416 Ry
     estimated scf accuracy    <       0.00000002 Ry

     total magnetization       =    16.00 Bohr mag/cell
     absolute magnetization    =    16.09 Bohr mag/cell

     iteration # 30     ecut=   100.00 Ry     beta= 0.40
     Davidson diagonalization with overlap
     ethr =  9.70E-12,  avg # of iterations =  2.0

     negative rho (up, down):  0.000E+00 5.773E-04

     total cpu time spent up to now is   123389.8 secs

     total energy              =   -2382.18221420 Ry
     estimated scf accuracy    <          4.1E-09 Ry

     total magnetization       =    16.00 Bohr mag/cell
     absolute magnetization    =    16.09 Bohr mag/cell

     iteration # 31     ecut=   100.00 Ry     beta= 0.40
     Davidson diagonalization with overlap
     ethr =  1.88E-12,  avg # of iterations =  3.0

     negative rho (up, down):  0.000E+00 5.773E-04

     total cpu time spent up to now is   127292.0 secs

     total energy              =   -2382.18221421 Ry
     estimated scf accuracy    <          5.5E-09 Ry

     total magnetization       =    16.00 Bohr mag/cell
     absolute magnetization    =    16.09 Bohr mag/cell

     iteration # 32     ecut=   100.00 Ry     beta= 0.40
     Davidson diagonalization with overlap
     ethr =  1.88E-12,  avg # of iterations =  2.0

     negative rho (up, down):  0.000E+00 5.774E-04

     total cpu time spent up to now is   131303.3 secs

     total energy              =   -2382.18221420 Ry
     estimated scf accuracy    <          3.5E-09 Ry

     total magnetization       =    16.00 Bohr mag/cell
     absolute magnetization    =    16.09 Bohr mag/cell

     iteration # 33     ecut=   100.00 Ry     beta= 0.40
     Davidson diagonalization with overlap
     ethr =  1.62E-12,  avg # of iterations =  4.1

     negative rho (up, down):  0.000E+00 5.774E-04

     total cpu time spent up to now is   136173.8 secs

     total energy              =   -2382.18221420 Ry
     estimated scf accuracy    <          3.4E-09 Ry

     total magnetization       =    16.00 Bohr mag/cell
     absolute magnetization    =    16.09 Bohr mag/cell

     iteration # 34     ecut=   100.00 Ry     beta= 0.40
     Davidson diagonalization with overlap
     ethr =  1.56E-12,  avg # of iterations =  4.0

     negative rho (up, down):  0.000E+00 5.774E-04

     total cpu time spent up to now is   141007.4 secs

     total energy              =   -2382.18221424 Ry
     estimated scf accuracy    <          7.6E-10 Ry

     total magnetization       =    16.00 Bohr mag/cell
     absolute magnetization    =    16.09 Bohr mag/cell

     iteration # 35     ecut=   100.00 Ry     beta= 0.40
     Davidson diagonalization with overlap
     ethr =  3.51E-13,  avg # of iterations =  4.0

     negative rho (up, down):  0.000E+00 5.775E-04

     Magnetic moment per site:
     atom:    1    charge:    7.9753    magn:    0.0001    constr:    0.0000
     atom:    2    charge:    7.9753    magn:    0.0001    constr:    0.0000
     atom:    3    charge:    7.9753    magn:    0.0001    constr:    0.0000
     atom:    4    charge:    7.9753    magn:    0.0001    constr:    0.0000
     atom:    5    charge:   13.4965    magn:    3.4258    constr:    0.0000
     atom:    6    charge:   13.4965    magn:    3.4258    constr:    0.0000
     atom:    7    charge:   13.4965    magn:    3.4258    constr:    0.0000
     atom:    8    charge:   13.4965    magn:    3.4258    constr:    0.0000
     atom:    9    charge:    0.8234    magn:    0.0053    constr:    0.0000
     atom:   10    charge:    0.8234    magn:    0.0053    constr:    0.0000
     atom:   11    charge:    0.8234    magn:    0.0053    constr:    0.0000
     atom:   12    charge:    0.8234    magn:    0.0053    constr:    0.0000
     atom:   13    charge:    4.2502    magn:    0.0273    constr:    0.0000
     atom:   14    charge:    4.2502    magn:    0.0273    constr:    0.0000
     atom:   15    charge:    4.2502    magn:    0.0273    constr:    0.0000
     atom:   16    charge:    4.2502    magn:    0.0273    constr:    0.0000
     atom:   17    charge:    4.2107    magn:    0.0391    constr:    0.0000
     atom:   18    charge:    4.2107    magn:    0.0391    constr:    0.0000
     atom:   19    charge:    4.2107    magn:    0.0391    constr:    0.0000
     atom:   20    charge:    4.2107    magn:    0.0391    constr:    0.0000
     atom:   21    charge:    4.2044    magn:    0.0671    constr:    0.0000
     atom:   22    charge:    4.2044    magn:    0.0671    constr:    0.0000
     atom:   23    charge:    4.2044    magn:    0.0671    constr:    0.0000
     atom:   24    charge:    4.2044    magn:    0.0671    constr:    0.0000
     atom:   25    charge:    4.2044    magn:    0.0671    constr:    0.0000
     atom:   26    charge:    4.2044    magn:    0.0671    constr:    0.0000
     atom:   27    charge:    4.2044    magn:    0.0671    constr:    0.0000
     atom:   28    charge:    4.2044    magn:    0.0671    constr:    0.0000

     total cpu time spent up to now is   145722.6 secs

     End of self-consistent calculation

 ------ SPIN UP ------------


          k = 0.0000 0.0000 0.0000 ( 40219 PWs)   bands (ev):

   -82.5320 -82.5315 -82.5304 -82.5298 -49.3999 -49.3992 -49.3983 -49.3976
   -48.5568 -48.5563 -48.5552 -48.5546 -47.7718 -47.7711 -47.7701 -47.7694
   -44.1085 -44.1085 -44.1039 -44.1038 -16.2127 -16.2098 -16.1281 -16.1250
   -16.1010 -16.1000 -16.0789 -16.0776 -16.0435 -16.0434 -16.0319 -16.0318
   -15.1389 -15.0012 -14.8908 -14.7923 -12.8385 -12.8136 -12.7985 -12.7808
   -12.6232 -12.5834 -12.4644 -12.4579 -12.4274 -12.3962 -12.3716 -12.3623
    -2.9662  -2.6369  -2.4578  -2.4531  -1.0587  -0.7602  -0.6749  -0.5981
    -0.3153  -0.2935  -0.0555  -0.0193   0.0036   0.0178   0.0939   0.3320
     1.2813   1.4089   1.6365   1.6452   1.9242   1.9858   1.9907   2.0781
     2.1165   2.1988   2.3087   2.4056   2.4935   2.5507   2.6574   2.7798
     2.8033   2.8212   2.8499   2.9109   2.9390   3.0032   3.2007   3.2319
     3.2511   3.2723   3.3686   3.5900   3.5937   3.8180   3.8875   4.0079
     4.1077   4.1842   4.3040   4.3380   4.4495   4.4503   4.5131   4.6391
     4.6552   4.7924   4.8473   5.0492   5.2149   5.2345   5.2471   5.4499
     5.5275   5.5328   5.5787   5.6133   8.5997  10.4841  10.8811  11.2866
    11.7350  12.6533  12.6873  12.9911  13.4594  13.6047  13.6609  13.7033
    13.8205  13.8211

     occupation numbers 
     1.0000   1.0000   1.0000   1.0000   1.0000   1.0000   1.0000   1.0000
     1.0000   1.0000   1.0000   1.0000   1.0000   1.0000   1.0000   1.0000
     1.0000   1.0000   1.0000   1.0000   1.0000   1.0000   1.0000   1.0000
     1.0000   1.0000   1.0000   1.0000   1.0000   1.0000   1.0000   1.0000
     1.0000   1.0000   1.0000   1.0000   1.0000   1.0000   1.0000   1.0000
     1.0000   1.0000   1.0000   1.0000   1.0000   1.0000   1.0000   1.0000
     1.0000   1.0000   1.0000   1.0000   1.0000   1.0000   1.0000   1.0000
     1.0000   1.0000   1.0000   1.0000   1.0000   1.0000   1.0000   1.0000
     1.0000   1.0000   1.0000   1.0000   1.0000   1.0000   1.0000   1.0000
     1.0000   1.0000   1.0000   1.0000   1.0000   1.0000   1.0000   1.0000
     1.0000   1.0000   1.0000   1.0000   1.0000   1.0000   1.0000   1.0000
     1.0000   1.0000   1.0000   1.0000   1.0000   1.0000   1.0000   1.0000
     1.0000   1.0000   1.0000   1.0000   1.0000   1.0000   1.0000   1.0000
     1.0000   1.0000   1.0000   1.0000   1.0000   1.0000   1.0000   1.0000
     1.0000   1.0000   1.0000   1.0000   0.0000   0.0000   0.0000   0.0000
     0.0000   0.0000   0.0000   0.0000   0.0000   0.0000   0.0000   0.0000
     0.0000   0.0000

          k = 0.0000 0.0000 0.2454 ( 40205 PWs)   bands (ev):

   -82.5320 -82.5315 -82.5304 -82.5298 -49.3999 -49.3992 -49.3982 -49.3976
   -48.5568 -48.5563 -48.5552 -48.5546 -47.7718 -47.7711 -47.7701 -47.7695
   -44.1085 -44.1085 -44.1039 -44.1038 -16.2081 -16.2055 -16.1304 -16.1276
   -16.1011 -16.1001 -16.0830 -16.0810 -16.0436 -16.0434 -16.0320 -16.0319
   -15.1151 -14.9848 -14.8913 -14.7984 -12.8489 -12.8293 -12.8133 -12.7949
   -12.6170 -12.5794 -12.4677 -12.4620 -12.4329 -12.3877 -12.3867 -12.3504
    -2.9524  -2.6395  -2.4819  -2.4371  -0.9953  -0.7316  -0.6107  -0.5373
    -0.3181  -0.2740  -0.0405  -0.0235  -0.0018   0.0171   0.0692   0.3128
     1.2747   1.3970   1.6074   1.6419   1.9237   1.9305   1.9379   2.0637
     2.0680   2.2444   2.2480   2.3641   2.5158   2.5319   2.5930   2.7233
     2.7574   2.8645   2.9452   2.9593   2.9904   3.0007   3.1705   3.1923
     3.2146   3.2950   3.4537   3.5910   3.6189   3.8220   3.8752   3.9951
     4.1014   4.1817   4.2793   4.3767   4.3942   4.4554   4.4592   4.6343
     4.6814   4.8096   4.8836   5.0917   5.2159   5.2579   5.2654   5.4071
     5.5109   5.5456   5.5602   5.6050   8.7503  10.5358  10.9209  11.3102
    11.8022  12.4263  12.8063  12.9460  13.2522  13.5266  13.5656  13.6837
    13.7430  13.8578

     occupation numbers 
     1.0000   1.0000   1.0000   1.0000   1.0000   1.0000   1.0000   1.0000
     1.0000   1.0000   1.0000   1.0000   1.0000   1.0000   1.0000   1.0000
     1.0000   1.0000   1.0000   1.0000   1.0000   1.0000   1.0000   1.0000
     1.0000   1.0000   1.0000   1.0000   1.0000   1.0000   1.0000   1.0000
     1.0000   1.0000   1.0000   1.0000   1.0000   1.0000   1.0000   1.0000
     1.0000   1.0000   1.0000   1.0000   1.0000   1.0000   1.0000   1.0000
     1.0000   1.0000   1.0000   1.0000   1.0000   1.0000   1.0000   1.0000
     1.0000   1.0000   1.0000   1.0000   1.0000   1.0000   1.0000   1.0000
     1.0000   1.0000   1.0000   1.0000   1.0000   1.0000   1.0000   1.0000
     1.0000   1.0000   1.0000   1.0000   1.0000   1.0000   1.0000   1.0000
     1.0000   1.0000   1.0000   1.0000   1.0000   1.0000   1.0000   1.0000
     1.0000   1.0000   1.0000   1.0000   1.0000   1.0000   1.0000   1.0000
     1.0000   1.0000   1.0000   1.0000   1.0000   1.0000   1.0000   1.0000
     1.0000   1.0000   1.0000   1.0000   1.0000   1.0000   1.0000   1.0000
     1.0000   1.0000   1.0000   1.0000   0.0000   0.0000   0.0000   0.0000
     0.0000   0.0000   0.0000   0.0000   0.0000   0.0000   0.0000   0.0000
     0.0000   0.0000

          k = 0.0000 0.0000 0.4908 ( 40238 PWs)   bands (ev):

   -82.5320 -82.5315 -82.5304 -82.5298 -49.3999 -49.3992 -49.3982 -49.3976
   -48.5568 -48.5563 -48.5552 -48.5546 -47.7718 -47.7711 -47.7701 -47.7695
   -44.1085 -44.1084 -44.1039 -44.1038 -16.1969 -16.1952 -16.1385 -16.1364
   -16.1012 -16.1004 -16.0890 -16.0860 -16.0436 -16.0435 -16.0323 -16.0322
   -15.0531 -14.9445 -14.8916 -14.8154 -12.8873 -12.8573 -12.8541 -12.8300
   -12.5994 -12.5680 -12.4772 -12.4676 -12.4489 -12.4080 -12.3690 -12.3383
    -2.9098  -2.6401  -2.5179  -2.4412  -0.8126  -0.6483  -0.4610  -0.3831
    -0.3197  -0.2290  -0.0325  -0.0106   0.0011   0.0247   0.0366   0.2574
     1.2518   1.3706   1.5134   1.6583   1.8134   1.8517   1.9137   1.9489
     2.0054   2.1136   2.3146   2.3465   2.4094   2.4735   2.5523   2.5692
     2.7062   2.8460   2.9368   3.0404   3.0622   3.1344   3.1447   3.1506
     3.2814   3.3705   3.4504   3.6798   3.6863   3.8268   3.8557   3.9691
     4.0775   4.1759   4.2473   4.2610   4.3407   4.4719   4.4958   4.6185
     4.7419   4.8744   4.9507   5.1753   5.2218   5.3124   5.3152   5.3317
     5.4448   5.5041   5.5583   5.5830   9.1445  10.6835  10.9662  11.4242
    11.9993  12.2488  12.4092  12.9277  13.1390  13.2327  13.3514  13.6232
    13.7108  13.8015

     occupation numbers 
     1.0000   1.0000   1.0000   1.0000   1.0000   1.0000   1.0000   1.0000
     1.0000   1.0000   1.0000   1.0000   1.0000   1.0000   1.0000   1.0000
     1.0000   1.0000   1.0000   1.0000   1.0000   1.0000   1.0000   1.0000
     1.0000   1.0000   1.0000   1.0000   1.0000   1.0000   1.0000   1.0000
     1.0000   1.0000   1.0000   1.0000   1.0000   1.0000   1.0000   1.0000
     1.0000   1.0000   1.0000   1.0000   1.0000   1.0000   1.0000   1.0000
     1.0000   1.0000   1.0000   1.0000   1.0000   1.0000   1.0000   1.0000
     1.0000   1.0000   1.0000   1.0000   1.0000   1.0000   1.0000   1.0000
     1.0000   1.0000   1.0000   1.0000   1.0000   1.0000   1.0000   1.0000
     1.0000   1.0000   1.0000   1.0000   1.0000   1.0000   1.0000   1.0000
     1.0000   1.0000   1.0000   1.0000   1.0000   1.0000   1.0000   1.0000
     1.0000   1.0000   1.0000   1.0000   1.0000   1.0000   1.0000   1.0000
     1.0000   1.0000   1.0000   1.0000   1.0000   1.0000   1.0000   1.0000
     1.0000   1.0000   1.0000   1.0000   1.0000   1.0000   1.0000   1.0000
     1.0000   1.0000   1.0000   1.0000   0.0000   0.0000   0.0000   0.0000
     0.0000   0.0000   0.0000   0.0000   0.0000   0.0000   0.0000   0.0000
     0.0000   0.0000

          k = 0.0000 0.0000 0.7363 ( 40234 PWs)   bands (ev):

   -82.5320 -82.5315 -82.5304 -82.5298 -49.3998 -49.3993 -49.3982 -49.3976
   -48.5568 -48.5563 -48.5552 -48.5546 -47.7718 -47.7711 -47.7701 -47.7695
   -44.1085 -44.1084 -44.1039 -44.1038 -16.1860 -16.1849 -16.1500 -16.1487
   -16.1013 -16.1008 -16.0894 -16.0870 -16.0437 -16.0436 -16.0325 -16.0324
   -14.9759 -14.9026 -14.8895 -14.8395 -12.9387 -12.9111 -12.8799 -12.8653
   -12.5730 -12.5506 -12.4925 -12.4734 -12.4677 -12.4292 -12.3500 -12.3307
    -2.8388  -2.6260  -2.5720  -2.4799  -0.5608  -0.5188  -0.3600  -0.3051
    -0.2091  -0.1776  -0.0925  -0.0583  -0.0058   0.1622   0.1675   0.1765
     1.2074   1.3548   1.3904   1.6543   1.6884   1.8058   1.8090   1.8805
     1.9312   1.9750   2.0837   2.2506   2.3819   2.4648   2.5309   2.6126
     2.6479   2.7493   2.8415   2.9168   3.1369   3.1820   3.2249   3.2927
     3.3251   3.4831   3.5297   3.6744   3.7638   3.8098   3.9036   3.9589
     4.0290   4.1301   4.1707   4.2398   4.2891   4.4868   4.5694   4.5931
     4.8487   4.9904   5.0145   5.2176   5.2469   5.2614   5.3342   5.3725
     5.3924   5.4099   5.5500   5.5550   9.6668  10.9099  10.9139  11.5831
    12.0448  12.1363  12.3354  12.6280  12.6458  13.2664  13.3264  13.4863
    13.5226  13.7566

     occupation numbers 
     1.0000   1.0000   1.0000   1.0000   1.0000   1.0000   1.0000   1.0000
     1.0000   1.0000   1.0000   1.0000   1.0000   1.0000   1.0000   1.0000
     1.0000   1.0000   1.0000   1.0000   1.0000   1.0000   1.0000   1.0000
     1.0000   1.0000   1.0000   1.0000   1.0000   1.0000   1.0000   1.0000
     1.0000   1.0000   1.0000   1.0000   1.0000   1.0000   1.0000   1.0000
     1.0000   1.0000   1.0000   1.0000   1.0000   1.0000   1.0000   1.0000
     1.0000   1.0000   1.0000   1.0000   1.0000   1.0000   1.0000   1.0000
     1.0000   1.0000   1.0000   1.0000   1.0000   1.0000   1.0000   1.0000
     1.0000   1.0000   1.0000   1.0000   1.0000   1.0000   1.0000   1.0000
     1.0000   1.0000   1.0000   1.0000   1.0000   1.0000   1.0000   1.0000
     1.0000   1.0000   1.0000   1.0000   1.0000   1.0000   1.0000   1.0000
     1.0000   1.0000   1.0000   1.0000   1.0000   1.0000   1.0000   1.0000
     1.0000   1.0000   1.0000   1.0000   1.0000   1.0000   1.0000   1.0000
     1.0000   1.0000   1.0000   1.0000   1.0000   1.0000   1.0000   1.0000
     1.0000   1.0000   1.0000   1.0000   0.0000   0.0000   0.0000   0.0000
     0.0000   0.0000   0.0000   0.0000   0.0000   0.0000   0.0000   0.0000
     0.0000   0.0000

          k = 0.0000 0.0000 0.9817 ( 40292 PWs)   bands (ev):

   -82.5320 -82.5315 -82.5304 -82.5298 -49.3998 -49.3993 -49.3982 -49.3977
   -48.5568 -48.5563 -48.5552 -48.5546 -47.7718 -47.7712 -47.7701 -47.7695
   -44.1085 -44.1084 -44.1039 -44.1038 -16.1814 -16.1808 -16.1560 -16.1557
   -16.1013 -16.1011 -16.0869 -16.0860 -16.0437 -16.0437 -16.0327 -16.0326
   -14.9097 -14.8836 -14.8818 -14.8679 -12.9685 -12.9576 -12.8922 -12.8877
   -12.5418 -12.5291 -12.5133 -12.5028 -12.4608 -12.4475 -12.3361 -12.3295
    -2.7463  -2.6503  -2.5913  -2.5386  -0.4308  -0.3637  -0.3041  -0.2616
    -0.1899  -0.1872  -0.0959  -0.0372   0.0273   0.0921   0.3248   0.3258
     1.1775   1.2506   1.3728   1.4752   1.7158   1.7405   1.7692   1.8164
     1.8183   1.8726   1.9916   2.0895   2.4465   2.5008   2.5584   2.6058
     2.6809   2.6815   2.7320   2.7872   3.1810   3.2084   3.2498   3.3051
     3.4383   3.5604   3.6250   3.7062   3.7440   3.7925   3.9436   3.9698
     3.9820   4.0396   4.1705   4.1866   4.3730   4.4577   4.5822   4.5872
     5.0108   5.0787   5.1345   5.1499   5.1840   5.2670   5.2746   5.2819
     5.4321   5.4461   5.5270   5.5294  10.2091  10.6622  11.2036  11.4842
    12.0624  12.1054  12.2558  12.3278  12.7628  13.1325  13.2940  13.3986
    13.4336  13.6019

     occupation numbers 
     1.0000   1.0000   1.0000   1.0000   1.0000   1.0000   1.0000   1.0000
     1.0000   1.0000   1.0000   1.0000   1.0000   1.0000   1.0000   1.0000
     1.0000   1.0000   1.0000   1.0000   1.0000   1.0000   1.0000   1.0000
     1.0000   1.0000   1.0000   1.0000   1.0000   1.0000   1.0000   1.0000
     1.0000   1.0000   1.0000   1.0000   1.0000   1.0000   1.0000   1.0000
     1.0000   1.0000   1.0000   1.0000   1.0000   1.0000   1.0000   1.0000
     1.0000   1.0000   1.0000   1.0000   1.0000   1.0000   1.0000   1.0000
     1.0000   1.0000   1.0000   1.0000   1.0000   1.0000   1.0000   1.0000
     1.0000   1.0000   1.0000   1.0000   1.0000   1.0000   1.0000   1.0000
     1.0000   1.0000   1.0000   1.0000   1.0000   1.0000   1.0000   1.0000
     1.0000   1.0000   1.0000   1.0000   1.0000   1.0000   1.0000   1.0000
     1.0000   1.0000   1.0000   1.0000   1.0000   1.0000   1.0000   1.0000
     1.0000   1.0000   1.0000   1.0000   1.0000   1.0000   1.0000   1.0000
     1.0000   1.0000   1.0000   1.0000   1.0000   1.0000   1.0000   1.0000
     1.0000   1.0000   1.0000   1.0000   0.0000   0.0000   0.0000   0.0000
     0.0000   0.0000   0.0000   0.0000   0.0000   0.0000   0.0000   0.0000
     0.0000   0.0000

          k = 0.0000 0.2391 0.0000 ( 40223 PWs)   bands (ev):

   -82.5320 -82.5315 -82.5304 -82.5298 -49.3999 -49.3992 -49.3982 -49.3976
   -48.5568 -48.5563 -48.5552 -48.5546 -47.7718 -47.7711 -47.7701 -47.7695
   -44.1083 -44.1083 -44.1041 -44.1040 -16.2051 -16.2026 -16.1267 -16.1237
   -16.1023 -16.1013 -16.0766 -16.0754 -16.0531 -16.0529 -16.0344 -16.0343
   -15.1205 -14.9931 -14.8938 -14.8087 -12.8344 -12.8119 -12.7985 -12.7823
   -12.6166 -12.5944 -12.5233 -12.4400 -12.4048 -12.3932 -12.3632 -12.3625
    -2.9365  -2.6177  -2.4734  -2.4537  -1.0241  -0.7415  -0.6609  -0.6064
    -0.2928  -0.2848  -0.0910  -0.0628   0.0209   0.0645   0.1127   0.3081
     1.2904   1.4168   1.5855   1.6742   1.8240   1.9099   1.9690   2.0731
     2.0738   2.2455   2.4029   2.4504   2.4549   2.5413   2.5628   2.8011
     2.8181   2.8334   2.8780   2.9131   2.9588   3.0119   3.1330   3.2432
     3.2695   3.3015   3.3455   3.5662   3.5798   3.7994   3.9476   3.9926
     4.0505   4.1699   4.1945   4.2230   4.4713   4.5080   4.5894   4.6546
     4.6613   4.7726   4.9517   5.0868   5.1926   5.2141   5.2501   5.3407
     5.4007   5.6183   5.6414   5.6469   8.7633  10.5756  10.9949  11.2564
    11.7802  12.6179  12.7195  12.9041  13.4975  13.5521  13.6516  13.7031
    13.8346  13.9485

     occupation numbers 
     1.0000   1.0000   1.0000   1.0000   1.0000   1.0000   1.0000   1.0000
     1.0000   1.0000   1.0000   1.0000   1.0000   1.0000   1.0000   1.0000
     1.0000   1.0000   1.0000   1.0000   1.0000   1.0000   1.0000   1.0000
     1.0000   1.0000   1.0000   1.0000   1.0000   1.0000   1.0000   1.0000
     1.0000   1.0000   1.0000   1.0000   1.0000   1.0000   1.0000   1.0000
     1.0000   1.0000   1.0000   1.0000   1.0000   1.0000   1.0000   1.0000
     1.0000   1.0000   1.0000   1.0000   1.0000   1.0000   1.0000   1.0000
     1.0000   1.0000   1.0000   1.0000   1.0000   1.0000   1.0000   1.0000
     1.0000   1.0000   1.0000   1.0000   1.0000   1.0000   1.0000   1.0000
     1.0000   1.0000   1.0000   1.0000   1.0000   1.0000   1.0000   1.0000
     1.0000   1.0000   1.0000   1.0000   1.0000   1.0000   1.0000   1.0000
     1.0000   1.0000   1.0000   1.0000   1.0000   1.0000   1.0000   1.0000
     1.0000   1.0000   1.0000   1.0000   1.0000   1.0000   1.0000   1.0000
     1.0000   1.0000   1.0000   1.0000   1.0000   1.0000   1.0000   1.0000
     1.0000   1.0000   1.0000   1.0000   0.0000   0.0000   0.0000   0.0000
     0.0000   0.0000   0.0000   0.0000   0.0000   0.0000   0.0000   0.0000
     0.0000   0.0000

          k = 0.0000 0.2391 0.2454 ( 40217 PWs)   bands (ev):

   -82.5320 -82.5315 -82.5304 -82.5298 -49.3999 -49.3992 -49.3982 -49.3976
   -48.5568 -48.5563 -48.5552 -48.5546 -47.7718 -47.7711 -47.7701 -47.7695
   -44.1083 -44.1083 -44.1041 -44.1040 -16.2007 -16.1985 -16.1289 -16.1262
   -16.1025 -16.1015 -16.0810 -16.0790 -16.0521 -16.0521 -16.0346 -16.0345
   -15.0984 -14.9778 -14.8936 -14.8133 -12.8459 -12.8274 -12.8133 -12.7969
   -12.6113 -12.5890 -12.5233 -12.4454 -12.4117 -12.3842 -12.3817 -12.3478
    -2.9230  -2.6202  -2.4881  -2.4452  -0.9620  -0.7133  -0.5985  -0.5455
    -0.2897  -0.2731  -0.0840  -0.0491   0.0142   0.0556   0.0901   0.2907
     1.2811   1.3981   1.5603   1.6808   1.7757   1.8750   1.9520   2.0246
     2.0381   2.2824   2.3634   2.3864   2.4780   2.5095   2.5848   2.7417
     2.7954   2.8416   2.9391   2.9569   2.9946   3.0206   3.0795   3.2440
     3.2523   3.3127   3.4049   3.5598   3.6021   3.8034   3.9409   3.9789
     4.0431   4.1427   4.1935   4.2672   4.4650   4.4796   4.5365   4.6508
     4.6795   4.7843   4.9899   5.1259   5.2070   5.2164   5.2689   5.3173
     5.3890   5.5945   5.6340   5.6531   8.9076  10.6278  11.0386  11.2956
    11.8388  12.4513  12.7307  12.9188  13.3383  13.4173  13.6637  13.6806
    13.7786  13.8820

     occupation numbers 
     1.0000   1.0000   1.0000   1.0000   1.0000   1.0000   1.0000   1.0000
     1.0000   1.0000   1.0000   1.0000   1.0000   1.0000   1.0000   1.0000
     1.0000   1.0000   1.0000   1.0000   1.0000   1.0000   1.0000   1.0000
     1.0000   1.0000   1.0000   1.0000   1.0000   1.0000   1.0000   1.0000
     1.0000   1.0000   1.0000   1.0000   1.0000   1.0000   1.0000   1.0000
     1.0000   1.0000   1.0000   1.0000   1.0000   1.0000   1.0000   1.0000
     1.0000   1.0000   1.0000   1.0000   1.0000   1.0000   1.0000   1.0000
     1.0000   1.0000   1.0000   1.0000   1.0000   1.0000   1.0000   1.0000
     1.0000   1.0000   1.0000   1.0000   1.0000   1.0000   1.0000   1.0000
     1.0000   1.0000   1.0000   1.0000   1.0000   1.0000   1.0000   1.0000
     1.0000   1.0000   1.0000   1.0000   1.0000   1.0000   1.0000   1.0000
     1.0000   1.0000   1.0000   1.0000   1.0000   1.0000   1.0000   1.0000
     1.0000   1.0000   1.0000   1.0000   1.0000   1.0000   1.0000   1.0000
     1.0000   1.0000   1.0000   1.0000   1.0000   1.0000   1.0000   1.0000
     1.0000   1.0000   1.0000   1.0000   0.0000   0.0000   0.0000   0.0000
     0.0000   0.0000   0.0000   0.0000   0.0000   0.0000   0.0000   0.0000
     0.0000   0.0000

          k = 0.0000 0.2391 0.4908 ( 40204 PWs)   bands (ev):

   -82.5320 -82.5315 -82.5304 -82.5298 -49.3999 -49.3992 -49.3982 -49.3976
   -48.5568 -48.5563 -48.5552 -48.5546 -47.7718 -47.7711 -47.7701 -47.7695
   -44.1083 -44.1082 -44.1041 -44.1040 -16.1900 -16.1885 -16.1365 -16.1345
   -16.1028 -16.1020 -16.0869 -16.0842 -16.0510 -16.0510 -16.0352 -16.0350
   -15.0404 -14.9401 -14.8925 -14.8262 -12.8842 -12.8575 -12.8539 -12.8329
   -12.5959 -12.5746 -12.5224 -12.4613 -12.4223 -12.4028 -12.3685 -12.3369
    -2.8817  -2.6214  -2.5167  -2.4499  -0.7828  -0.6328  -0.4517  -0.3944
    -0.2921  -0.2302  -0.0644   0.0022   0.0032   0.0405   0.0517   0.2410
     1.2474   1.3620   1.4851   1.6781   1.6888   1.8060   1.8606   1.9369
     2.0090   2.2402   2.3138   2.3280   2.4484   2.4574   2.5588   2.5951
     2.7478   2.8203   2.9158   3.0050   3.0636   3.1293   3.1440   3.1785
     3.3136   3.3790   3.3974   3.6039   3.6611   3.8206   3.9229   3.9532
     4.0170   4.1023   4.1916   4.2843   4.4380   4.4688   4.5018   4.6370
     4.7244   4.8190   5.0596   5.2045   5.2161   5.2301   5.2633   5.3206
     5.3632   5.5443   5.6154   5.6518   9.2887  10.7768  11.0931  11.4429
    12.0275  12.2974  12.3638  12.9922  13.1425  13.2071  13.3743  13.6208
    13.6491  13.7930

     occupation numbers 
     1.0000   1.0000   1.0000   1.0000   1.0000   1.0000   1.0000   1.0000
     1.0000   1.0000   1.0000   1.0000   1.0000   1.0000   1.0000   1.0000
     1.0000   1.0000   1.0000   1.0000   1.0000   1.0000   1.0000   1.0000
     1.0000   1.0000   1.0000   1.0000   1.0000   1.0000   1.0000   1.0000
     1.0000   1.0000   1.0000   1.0000   1.0000   1.0000   1.0000   1.0000
     1.0000   1.0000   1.0000   1.0000   1.0000   1.0000   1.0000   1.0000
     1.0000   1.0000   1.0000   1.0000   1.0000   1.0000   1.0000   1.0000
     1.0000   1.0000   1.0000   1.0000   1.0000   1.0000   1.0000   1.0000
     1.0000   1.0000   1.0000   1.0000   1.0000   1.0000   1.0000   1.0000
     1.0000   1.0000   1.0000   1.0000   1.0000   1.0000   1.0000   1.0000
     1.0000   1.0000   1.0000   1.0000   1.0000   1.0000   1.0000   1.0000
     1.0000   1.0000   1.0000   1.0000   1.0000   1.0000   1.0000   1.0000
     1.0000   1.0000   1.0000   1.0000   1.0000   1.0000   1.0000   1.0000
     1.0000   1.0000   1.0000   1.0000   1.0000   1.0000   1.0000   1.0000
     1.0000   1.0000   1.0000   1.0000   0.0000   0.0000   0.0000   0.0000
     0.0000   0.0000   0.0000   0.0000   0.0000   0.0000   0.0000   0.0000
     0.0000   0.0000

          k = 0.0000 0.2391 0.7363 ( 40239 PWs)   bands (ev):

   -82.5320 -82.5315 -82.5304 -82.5298 -49.3998 -49.3993 -49.3982 -49.3976
   -48.5568 -48.5563 -48.5552 -48.5546 -47.7718 -47.7712 -47.7701 -47.7695
   -44.1083 -44.1082 -44.1041 -44.1040 -16.1795 -16.1785 -16.1470 -16.1457
   -16.1031 -16.1026 -16.0875 -16.0852 -16.0506 -16.0506 -16.0359 -16.0357
   -14.9681 -14.9006 -14.8888 -14.8451 -12.9346 -12.9103 -12.8831 -12.8689
   -12.5726 -12.5550 -12.5212 -12.4852 -12.4336 -12.4229 -12.3521 -12.3312
    -2.8133  -2.6099  -2.5625  -2.4850  -0.5389  -0.5087  -0.3620  -0.2820
    -0.2033  -0.1882  -0.0788  -0.0610   0.0099   0.1419   0.1602   0.1911
     1.1880   1.3384   1.3657   1.5536   1.6801   1.7647   1.7749   1.8737
     1.9657   2.0706   2.1046   2.1994   2.4134   2.4814   2.5384   2.6207
     2.7060   2.7180   2.8254   2.9195   3.1245   3.1946   3.2327   3.2839
     3.3375   3.4608   3.4991   3.6014   3.7263   3.8449   3.9022   3.9361
     3.9763   4.0493   4.1923   4.2472   4.4110   4.5268   4.5361   4.6095
     4.7989   4.8860   5.1281   5.1606   5.1876   5.2432   5.2718   5.3629
     5.3896   5.4882   5.5958   5.6361   9.8006  11.0093  11.0510  11.6499
    12.0173  12.1913  12.3573  12.6620  12.6842  13.2497  13.3283  13.4949
    13.5275  13.6998

     occupation numbers 
     1.0000   1.0000   1.0000   1.0000   1.0000   1.0000   1.0000   1.0000
     1.0000   1.0000   1.0000   1.0000   1.0000   1.0000   1.0000   1.0000
     1.0000   1.0000   1.0000   1.0000   1.0000   1.0000   1.0000   1.0000
     1.0000   1.0000   1.0000   1.0000   1.0000   1.0000   1.0000   1.0000
     1.0000   1.0000   1.0000   1.0000   1.0000   1.0000   1.0000   1.0000
     1.0000   1.0000   1.0000   1.0000   1.0000   1.0000   1.0000   1.0000
     1.0000   1.0000   1.0000   1.0000   1.0000   1.0000   1.0000   1.0000
     1.0000   1.0000   1.0000   1.0000   1.0000   1.0000   1.0000   1.0000
     1.0000   1.0000   1.0000   1.0000   1.0000   1.0000   1.0000   1.0000
     1.0000   1.0000   1.0000   1.0000   1.0000   1.0000   1.0000   1.0000
     1.0000   1.0000   1.0000   1.0000   1.0000   1.0000   1.0000   1.0000
     1.0000   1.0000   1.0000   1.0000   1.0000   1.0000   1.0000   1.0000
     1.0000   1.0000   1.0000   1.0000   1.0000   1.0000   1.0000   1.0000
     1.0000   1.0000   1.0000   1.0000   1.0000   1.0000   1.0000   1.0000
     1.0000   1.0000   1.0000   1.0000   0.0000   0.0000   0.0000   0.0000
     0.0000   0.0000   0.0000   0.0000   0.0000   0.0000   0.0000   0.0000
     0.0000   0.0000

          k = 0.0000 0.2391 0.9817 ( 40255 PWs)   bands (ev):

   -82.5320 -82.5315 -82.5304 -82.5298 -49.3998 -49.3993 -49.3982 -49.3977
   -48.5568 -48.5563 -48.5552 -48.5546 -47.7718 -47.7712 -47.7701 -47.7695
   -44.1083 -44.1082 -44.1041 -44.1040 -16.1749 -16.1743 -16.1524 -16.1521
   -16.1031 -16.1030 -16.0852 -16.0843 -16.0507 -16.0506 -16.0363 -16.0362
   -14.9066 -14.8824 -14.8807 -14.8688 -12.9646 -12.9551 -12.8968 -12.8922
   -12.5446 -12.5354 -12.5242 -12.5135 -12.4408 -12.4372 -12.3390 -12.3317
    -2.7249  -2.6339  -2.5808  -2.5362  -0.4271  -0.3682  -0.2944  -0.2329
    -0.1862  -0.1752  -0.0832  -0.0467   0.0337   0.0843   0.3235   0.3272
     1.1501   1.2230   1.3413   1.4138   1.6632   1.7126   1.7795   1.8448
     1.8664   1.9119   2.0070   2.0584   2.4461   2.5068   2.5714   2.6200
     2.6529   2.6924   2.7531   2.8203   3.1676   3.2003   3.2581   3.3100
     3.4205   3.5293   3.6245   3.6457   3.7334   3.7747   3.9132   3.9160
     3.9678   3.9979   4.1995   4.2164   4.4607   4.5216   4.5749   4.5834
     4.9196   4.9793   5.0569   5.0821   5.1986   5.2445   5.3046   5.3352
     5.4493   5.4695   5.5898   5.6089  10.3405  10.8010  11.3044  11.5900
    12.0476  12.1458  12.2764  12.3567  12.7943  13.1590  13.2594  13.3805
    13.4622  13.6117

     occupation numbers 
     1.0000   1.0000   1.0000   1.0000   1.0000   1.0000   1.0000   1.0000
     1.0000   1.0000   1.0000   1.0000   1.0000   1.0000   1.0000   1.0000
     1.0000   1.0000   1.0000   1.0000   1.0000   1.0000   1.0000   1.0000
     1.0000   1.0000   1.0000   1.0000   1.0000   1.0000   1.0000   1.0000
     1.0000   1.0000   1.0000   1.0000   1.0000   1.0000   1.0000   1.0000
     1.0000   1.0000   1.0000   1.0000   1.0000   1.0000   1.0000   1.0000
     1.0000   1.0000   1.0000   1.0000   1.0000   1.0000   1.0000   1.0000
     1.0000   1.0000   1.0000   1.0000   1.0000   1.0000   1.0000   1.0000
     1.0000   1.0000   1.0000   1.0000   1.0000   1.0000   1.0000   1.0000
     1.0000   1.0000   1.0000   1.0000   1.0000   1.0000   1.0000   1.0000
     1.0000   1.0000   1.0000   1.0000   1.0000   1.0000   1.0000   1.0000
     1.0000   1.0000   1.0000   1.0000   1.0000   1.0000   1.0000   1.0000
     1.0000   1.0000   1.0000   1.0000   1.0000   1.0000   1.0000   1.0000
     1.0000   1.0000   1.0000   1.0000   1.0000   1.0000   1.0000   1.0000
     1.0000   1.0000   1.0000   1.0000   0.0000   0.0000   0.0000   0.0000
     0.0000   0.0000   0.0000   0.0000   0.0000   0.0000   0.0000   0.0000
     0.0000   0.0000

          k = 0.0000 0.4781 0.0000 ( 40201 PWs)   bands (ev):

   -82.5320 -82.5315 -82.5304 -82.5298 -49.3998 -49.3992 -49.3982 -49.3976
   -48.5568 -48.5563 -48.5552 -48.5546 -47.7718 -47.7711 -47.7701 -47.7695
   -44.1078 -44.1077 -44.1046 -44.1046 -16.1836 -16.1821 -16.1229 -16.1203
   -16.1060 -16.1047 -16.0793 -16.0786 -16.0702 -16.0693 -16.0410 -16.0408
   -15.0700 -14.9720 -14.9035 -14.8549 -12.8232 -12.8078 -12.7990 -12.7869
   -12.6160 -12.5961 -12.5794 -12.4732 -12.3860 -12.3645 -12.3632 -12.3467
    -2.8552  -2.5686  -2.5335  -2.4511  -0.9293  -0.6917  -0.6349  -0.6285
    -0.2905  -0.2109  -0.1765  -0.0799   0.0337   0.1201   0.1483   0.2420
     1.3415   1.4341   1.4646   1.7340   1.7406   1.7794   1.8340   2.0140
     2.0482   2.3190   2.3465   2.4038   2.4679   2.5255   2.5999   2.8047
     2.8538   2.8865   2.9060   2.9250   2.9908   3.0032   3.0376   3.2912
     3.3267   3.3402   3.3462   3.5168   3.5424   3.8081   3.8813   3.9600
     3.9702   4.0396   4.0718   4.1427   4.5395   4.6153   4.6539   4.6757
     4.6902   4.7624   5.0530   5.1010   5.1553   5.1646   5.2453   5.2626
     5.3461   5.6591   5.6743   5.6913   9.2043  10.8301  11.0032  11.2908
    11.7950  12.4075  12.8977  12.9423  13.3572  13.7039  13.7826  13.7856
    13.9637  14.0216

     occupation numbers 
     1.0000   1.0000   1.0000   1.0000   1.0000   1.0000   1.0000   1.0000
     1.0000   1.0000   1.0000   1.0000   1.0000   1.0000   1.0000   1.0000
     1.0000   1.0000   1.0000   1.0000   1.0000   1.0000   1.0000   1.0000
     1.0000   1.0000   1.0000   1.0000   1.0000   1.0000   1.0000   1.0000
     1.0000   1.0000   1.0000   1.0000   1.0000   1.0000   1.0000   1.0000
     1.0000   1.0000   1.0000   1.0000   1.0000   1.0000   1.0000   1.0000
     1.0000   1.0000   1.0000   1.0000   1.0000   1.0000   1.0000   1.0000
     1.0000   1.0000   1.0000   1.0000   1.0000   1.0000   1.0000   1.0000
     1.0000   1.0000   1.0000   1.0000   1.0000   1.0000   1.0000   1.0000
     1.0000   1.0000   1.0000   1.0000   1.0000   1.0000   1.0000   1.0000
     1.0000   1.0000   1.0000   1.0000   1.0000   1.0000   1.0000   1.0000
     1.0000   1.0000   1.0000   1.0000   1.0000   1.0000   1.0000   1.0000
     1.0000   1.0000   1.0000   1.0000   1.0000   1.0000   1.0000   1.0000
     1.0000   1.0000   1.0000   1.0000   1.0000   1.0000   1.0000   1.0000
     1.0000   1.0000   1.0000   1.0000   0.0000   0.0000   0.0000   0.0000
     0.0000   0.0000   0.0000   0.0000   0.0000   0.0000   0.0000   0.0000
     0.0000   0.0000

          k = 0.0000 0.4781 0.2454 ( 40201 PWs)   bands (ev):

   -82.5320 -82.5315 -82.5304 -82.5298 -49.3998 -49.3992 -49.3982 -49.3976
   -48.5568 -48.5563 -48.5552 -48.5546 -47.7718 -47.7711 -47.7701 -47.7695
   -44.1078 -44.1077 -44.1046 -44.1046 -16.1799 -16.1786 -16.1250 -16.1225
   -16.1063 -16.1051 -16.0823 -16.0808 -16.0687 -16.0683 -16.0416 -16.0414
   -15.0522 -14.9595 -14.9015 -14.8553 -12.8376 -12.8226 -12.8135 -12.8030
   -12.6112 -12.5898 -12.5758 -12.4766 -12.3837 -12.3742 -12.3661 -12.3413
    -2.8429  -2.5709  -2.5338  -2.4522  -0.8696  -0.6628  -0.5837  -0.5615
    -0.2697  -0.2308  -0.1475  -0.0691   0.0247   0.1067   0.1288   0.2293
     1.3226   1.4011   1.4454   1.6828   1.7003   1.7945   1.8037   2.0032
     2.0142   2.3377   2.3809   2.3909   2.4317   2.4546   2.6821   2.7567
     2.8285   2.8495   2.9344   2.9394   2.9909   3.0128   3.0856   3.3027
     3.3103   3.3265   3.3658   3.5161   3.5570   3.8070   3.8770   3.9390
     3.9652   4.0021   4.1284   4.1507   4.5478   4.5932   4.6094   4.6871
     4.6891   4.7699   5.0528   5.0904   5.1648   5.2038   5.2429   5.2859
     5.3450   5.6346   5.6863   5.6901   9.3326  10.8827  11.0605  11.3546
    11.8489  12.4132  12.7377  12.9123  13.4072  13.5632  13.6784  13.8403
    13.8464  13.8704

     occupation numbers 
     1.0000   1.0000   1.0000   1.0000   1.0000   1.0000   1.0000   1.0000
     1.0000   1.0000   1.0000   1.0000   1.0000   1.0000   1.0000   1.0000
     1.0000   1.0000   1.0000   1.0000   1.0000   1.0000   1.0000   1.0000
     1.0000   1.0000   1.0000   1.0000   1.0000   1.0000   1.0000   1.0000
     1.0000   1.0000   1.0000   1.0000   1.0000   1.0000   1.0000   1.0000
     1.0000   1.0000   1.0000   1.0000   1.0000   1.0000   1.0000   1.0000
     1.0000   1.0000   1.0000   1.0000   1.0000   1.0000   1.0000   1.0000
     1.0000   1.0000   1.0000   1.0000   1.0000   1.0000   1.0000   1.0000
     1.0000   1.0000   1.0000   1.0000   1.0000   1.0000   1.0000   1.0000
     1.0000   1.0000   1.0000   1.0000   1.0000   1.0000   1.0000   1.0000
     1.0000   1.0000   1.0000   1.0000   1.0000   1.0000   1.0000   1.0000
     1.0000   1.0000   1.0000   1.0000   1.0000   1.0000   1.0000   1.0000
     1.0000   1.0000   1.0000   1.0000   1.0000   1.0000   1.0000   1.0000
     1.0000   1.0000   1.0000   1.0000   1.0000   1.0000   1.0000   1.0000
     1.0000   1.0000   1.0000   1.0000   0.0000   0.0000   0.0000   0.0000
     0.0000   0.0000   0.0000   0.0000   0.0000   0.0000   0.0000   0.0000
     0.0000   0.0000

          k = 0.0000 0.4781 0.4908 ( 40219 PWs)   bands (ev):

   -82.5320 -82.5315 -82.5304 -82.5298 -49.3998 -49.3993 -49.3982 -49.3976
   -48.5568 -48.5563 -48.5552 -48.5546 -47.7718 -47.7711 -47.7701 -47.7695
   -44.1078 -44.1077 -44.1046 -44.1046 -16.1707 -16.1698 -16.1312 -16.1294
   -16.1070 -16.1061 -16.0852 -16.0830 -16.0674 -16.0673 -16.0431 -16.0428
   -15.0054 -14.9287 -14.8957 -14.8571 -12.8761 -12.8572 -12.8538 -12.8408
   -12.5970 -12.5747 -12.5662 -12.4870 -12.3913 -12.3841 -12.3678 -12.3357
    -2.8059  -2.5738  -2.5374  -2.4644  -0.6987  -0.5863  -0.4406  -0.4179
    -0.2454  -0.2318  -0.0920  -0.0107   0.0087   0.0800   0.0848   0.1943
     1.2529   1.3493   1.3902   1.5551   1.6468   1.7123   1.8091   1.9672
     2.0021   2.2638   2.3031   2.3236   2.4318   2.4774   2.6416   2.6626
     2.7944   2.8183   2.8911   2.9268   3.0553   3.1492   3.1620   3.2508
     3.2951   3.3714   3.4028   3.5311   3.6001   3.8089   3.8648   3.9101
     3.9327   3.9768   4.1710   4.1978   4.5482   4.5637   4.5672   4.6836
     4.7016   4.7860   5.0312   5.0619   5.1910   5.2426   5.2687   5.3491
     5.3529   5.5959   5.6758   5.7047   9.6796  11.0313  11.2180  11.4917
    12.0452  12.3787  12.4026  12.9628  13.2585  13.2754  13.4112  13.6026
    13.6759  13.8179

     occupation numbers 
     1.0000   1.0000   1.0000   1.0000   1.0000   1.0000   1.0000   1.0000
[...]
     atom    2 type  2   force =     0.00000000    0.00000000    0.00000000
     atom    3 type  2   force =     0.00000000   -0.00000000    0.00000000
     atom    4 type  2   force =     0.00000000   -0.00000000    0.00000000
     atom    5 type  1   force =    -0.01648731    0.00000000   -0.00178455
     atom    6 type  1   force =     0.01646372    0.00000000   -0.00178551
     atom    7 type  1   force =     0.01648731    0.00000000    0.00178455
     atom    8 type  1   force =    -0.01646372    0.00000000    0.00178551
     atom    9 type  4   force =    -0.01168592   -0.00000000   -0.08672703
     atom   10 type  4   force =     0.01174331    0.00000000   -0.08678425
     atom   11 type  4   force =     0.01168592    0.00000000    0.08672703
     atom   12 type  4   force =    -0.01174331    0.00000000    0.08678425
     atom   13 type  3   force =     0.16313913    0.00000000   -1.52994465
     atom   14 type  3   force =    -0.16312933    0.00000000   -1.52995591
     atom   15 type  3   force =    -0.16313913    0.00000000    1.52994465
     atom   16 type  3   force =     0.16312933    0.00000000    1.52995591
     atom   17 type  3   force =     1.23615406    0.00000000   -0.62160923
     atom   18 type  3   force =    -1.23619822    0.00000000   -0.62165816
     atom   19 type  3   force =    -1.23615406    0.00000000    0.62160923
     atom   20 type  3   force =     1.23619822    0.00000000    0.62165816
     atom   21 type  3   force =    -0.67873469   -1.07062141    0.64944545
     atom   22 type  3   force =     0.67876414    1.07062897    0.64943168
     atom   23 type  3   force =     0.67873469   -1.07062141   -0.64944545
     atom   24 type  3   force =    -0.67876414    1.07062897   -0.64943168
     atom   25 type  3   force =     0.67873469    1.07062141   -0.64944545
     atom   26 type  3   force =    -0.67876414   -1.07062897   -0.64943168
     atom   27 type  3   force =    -0.67873469    1.07062141    0.64944545
     atom   28 type  3   force =     0.67876414   -1.07062897    0.64943168
     The ionic contribution  to forces
     atom    1 type  2   force =     0.00041633   -0.00006076    0.00017790
     atom    2 type  2   force =    -0.00022657    0.00019467    0.00005147
     atom    3 type  2   force =     0.00052874    0.00018934    0.00023951
     atom    4 type  2   force =    -0.00011416   -0.00006610   -0.00001014
     atom    5 type  1   force =     3.64709958   -0.00074950   -1.39074152
     atom    6 type  1   force =    -3.64525935    0.00073090   -1.39040484
     atom    7 type  1   force =    -3.64750522    0.00073090    1.39079909
     atom    8 type  1   force =     3.64537275   -0.00074950    1.39027398
     atom    9 type  4   force =    -1.04079473   -0.00017289    1.02098078
     atom   10 type  4   force =     1.04171962    0.00015894    1.02036599
     atom   11 type  4   force =     1.04091128    0.00015894   -1.02104941
     atom   12 type  4   force =    -1.04184966   -0.00017289   -1.02032873
     atom   13 type  3   force =    -3.49491555   -0.00023825    2.07716778
     atom   14 type  3   force =     3.49561388    0.00018147    2.07766984
     atom   15 type  3   force =     3.49513705    0.00018148   -2.07713234
     atom   16 type  3   force =    -3.49576070   -0.00023824   -2.07765185
     atom   17 type  3   force =    -1.54001855   -0.00023963    2.17914677
     atom   18 type  3   force =     1.54114184    0.00017723    2.17927684
     atom   19 type  3   force =     1.53981993    0.00017723   -2.17920990
     atom   20 type  3   force =    -1.54083231   -0.00023964   -2.17921231
     atom   21 type  3   force =     0.49444567    2.56771739   -1.08251077
     atom   22 type  3   force =    -0.49385900   -2.56750914   -1.08274884
     atom   23 type  3   force =    -0.49465583    2.56807163    1.08212726
     atom   24 type  3   force =     0.49382707   -2.56799945    1.08255379
     atom   25 type  3   force =    -0.49454744   -2.56765673    1.08231983
     atom   26 type  3   force =     0.49373275    2.56760770    1.08273534
     atom   27 type  3   force =     0.49453998   -2.56810914   -1.08232923
     atom   28 type  3   force =    -0.49396739    2.56792404   -1.08255628
     The local contribution  to forces
     atom    1 type  2   force =     0.00000000   -0.00000000    0.00000000
     atom    2 type  2   force =    -0.00508107   -0.00014494   -0.00229058
     atom    3 type  2   force =     0.00007699   -0.00200945    0.00004252
     atom    4 type  2   force =    -0.00500408   -0.00186452   -0.00233310
     atom    5 type  1   force =    -3.63899576   -0.00941327    1.38801294
     atom    6 type  1   force =     3.61549035   -0.00235332    1.38747183
     atom    7 type  1   force =     3.61556325   -0.00235332   -1.39876052
     atom    8 type  1   force =    -3.63511777   -0.00941327   -1.39844089
     atom    9 type  4   force =     1.02951230   -0.00003670   -0.98652963
     atom   10 type  4   force =    -1.03050646   -0.00000918   -0.98583135
     atom   11 type  4   force =    -1.02958128   -0.00000918    0.98660422
     atom   12 type  4   force =     1.03046938   -0.00003668    0.98597653
     atom   13 type  3   force =     3.33953269   -0.00218148   -0.53742222
     atom   14 type  3   force =    -3.34532377   -0.00054537   -0.53810940
     atom   15 type  3   force =    -3.34452349   -0.00054537    0.53518762
     atom   16 type  3   force =     3.34008165   -0.00218150    0.53539899
     atom   17 type  3   force =     0.35606337   -0.00215697   -1.58511498
     atom   18 type  3   force =    -0.36148414   -0.00053925   -1.58537217
     atom   19 type  3   force =    -0.36041355   -0.00053925    1.58296101
     atom   20 type  3   force =     0.35691093   -0.00215699    1.58272562
     atom   21 type  3   force =     0.16455428   -1.53165747    0.44569528
     atom   22 type  3   force =    -0.17052215    1.52944254    0.44601333
     atom   23 type  3   force =    -0.16990181   -1.53062634   -0.44808639
     atom   24 type  3   force =     0.16516866    1.52797511   -0.44812965
     atom   25 type  3   force =    -0.16985836    1.52970219   -0.44802614
     atom   26 type  3   force =     0.16534246   -1.53167171   -0.44837068
     atom   27 type  3   force =     0.16438046    1.52796088    0.44545425
     atom   28 type  3   force =    -0.17056561   -1.53036668    0.44607358
     The core correction contribution to forces
     atom    1 type  2   force =     0.00000000    0.00000000    0.00000000
     atom    2 type  2   force =     0.00000000    0.00000000    0.00000000
     atom    3 type  2   force =     0.00000000    0.00000000    0.00000000
     atom    4 type  2   force =     0.00000000    0.00000000    0.00000000
     atom    5 type  1   force =     0.00339387    0.00028321   -0.00018368
     atom    6 type  1   force =    -0.00265300    0.00007082   -0.00019744
     atom    7 type  1   force =    -0.00257926    0.00007082    0.00059119
     atom    8 type  1   force =     0.00331927    0.00028321    0.00057722
     atom    9 type  4   force =     0.00109716    0.00000590    0.00659406
     atom   10 type  4   force =    -0.00108808    0.00000147    0.00659979
     atom   11 type  4   force =    -0.00108230    0.00000147   -0.00658539
     atom   12 type  4   force =     0.00110297    0.00000590   -0.00659105
     atom   13 type  3   force =    -0.00214361   -0.00000119    0.01295029
     atom   14 type  3   force =     0.00213921   -0.00000030    0.01295047
     atom   15 type  3   force =     0.00213891   -0.00000030   -0.01295527
     atom   16 type  3   force =    -0.00214307   -0.00000119   -0.01295385
     atom   17 type  3   force =    -0.01110528   -0.00000099    0.00634922
     atom   18 type  3   force =     0.01109525   -0.00000025    0.00634802
     atom   19 type  3   force =     0.01109648   -0.00000025   -0.00634952
     atom   20 type  3   force =    -0.01110530   -0.00000099   -0.00635107
     atom   21 type  3   force =     0.00613315    0.00956720   -0.00614286
     atom   22 type  3   force =    -0.00613851   -0.00957312   -0.00614479
     atom   23 type  3   force =    -0.00613694    0.00957111    0.00614286
     atom   24 type  3   force =     0.00613436   -0.00957300    0.00614134
     atom   25 type  3   force =    -0.00613734   -0.00957263    0.00614303
     atom   26 type  3   force =     0.00613276    0.00956694    0.00614067
     atom   27 type  3   force =     0.00613476   -0.00957327   -0.00614352
     atom   28 type  3   force =    -0.00613811    0.00957160   -0.00614462
     The Hubbard contrib.    to forces
     atom    1 type  2   force =     0.00000000    0.00000000    0.00000000
     atom    2 type  2   force =     0.00000000    0.00000000    0.00000000
     atom    3 type  2   force =     0.00000000    0.00000000    0.00000000
     atom    4 type  2   force =     0.00000000    0.00000000    0.00000000
     atom    5 type  1   force =     0.00000000    0.00000000    0.00000000
     atom    6 type  1   force =     0.00000000    0.00000000    0.00000000
     atom    7 type  1   force =     0.00000000    0.00000000    0.00000000
     atom    8 type  1   force =     0.00000000    0.00000000    0.00000000
     atom    9 type  4   force =     0.00000000    0.00000000    0.00000000
     atom   10 type  4   force =     0.00000000    0.00000000    0.00000000
     atom   11 type  4   force =     0.00000000    0.00000000    0.00000000
     atom   12 type  4   force =     0.00000000    0.00000000    0.00000000
     atom   13 type  3   force =     0.00000000    0.00000000    0.00000000
     atom   14 type  3   force =     0.00000000    0.00000000    0.00000000
     atom   15 type  3   force =     0.00000000    0.00000000    0.00000000
     atom   16 type  3   force =     0.00000000    0.00000000    0.00000000
     atom   17 type  3   force =     0.00000000    0.00000000    0.00000000
     atom   18 type  3   force =     0.00000000    0.00000000    0.00000000
     atom   19 type  3   force =     0.00000000    0.00000000    0.00000000
     atom   20 type  3   force =     0.00000000    0.00000000    0.00000000
     atom   21 type  3   force =     0.00000000    0.00000000    0.00000000
     atom   22 type  3   force =     0.00000000    0.00000000    0.00000000
     atom   23 type  3   force =     0.00000000    0.00000000    0.00000000
     atom   24 type  3   force =     0.00000000    0.00000000    0.00000000
     atom   25 type  3   force =     0.00000000    0.00000000    0.00000000
     atom   26 type  3   force =     0.00000000    0.00000000    0.00000000
     atom   27 type  3   force =     0.00000000    0.00000000    0.00000000
     atom   28 type  3   force =     0.00000000    0.00000000    0.00000000
     The SCF correction term to forces
     atom    1 type  2   force =    -0.00000000    0.00000000   -0.00000000
     atom    2 type  2   force =     0.00000001   -0.00000000    0.00000000
     atom    3 type  2   force =    -0.00000000    0.00000000   -0.00000000
     atom    4 type  2   force =     0.00000001    0.00000000    0.00000000
     atom    5 type  1   force =     0.00000314    0.00000002    0.00000075
     atom    6 type  1   force =     0.00000375    0.00000000   -0.00000060
     atom    7 type  1   force =    -0.00000311    0.00000000   -0.00000073
     atom    8 type  1   force =    -0.00000370    0.00000003    0.00000063
     atom    9 type  4   force =     0.00000249    0.00000000   -0.00000002
     atom   10 type  4   force =     0.00000154   -0.00000000   -0.00000014
     atom   11 type  4   force =    -0.00000249   -0.00000000    0.00000002
     atom   12 type  4   force =    -0.00000154    0.00000000    0.00000014
     atom   13 type  3   force =     0.00000323    0.00000000    0.00000171
     atom   14 type  3   force =     0.00000332   -0.00000000   -0.00000015
     atom   15 type  3   force =    -0.00000323   -0.00000000   -0.00000171
     atom   16 type  3   force =    -0.00000332    0.00000000    0.00000015
     atom   17 type  3   force =    -0.00000277    0.00000000   -0.00000130
     atom   18 type  3   force =    -0.00000280    0.00000000    0.00000202
     atom   19 type  3   force =     0.00000277   -0.00000000    0.00000130
     atom   20 type  3   force =     0.00000280    0.00000000   -0.00000202
     atom   21 type  3   force =     0.00000175   -0.00000539   -0.00000236
     atom   22 type  3   force =     0.00000216   -0.00000404    0.00000224
     atom   23 type  3   force =    -0.00000174   -0.00000539    0.00000236
     atom   24 type  3   force =    -0.00000216   -0.00000404   -0.00000224
     atom   25 type  3   force =    -0.00000174    0.00000539    0.00000236
     atom   26 type  3   force =    -0.00000216    0.00000405   -0.00000224
     atom   27 type  3   force =     0.00000175    0.00000539   -0.00000236
     atom   28 type  3   force =     0.00000216    0.00000404    0.00000224

     Total force =     0.166869     Total SCF correction =     0.000020


     Computing stress (Cartesian axis) and pressure


     negative rho (up, down):  0.000E+00 5.775E-04
          total   stress  (Ry/bohr**3)                   (kbar)     P=      -67.34
  -0.00068513   0.00000000   0.00000004         -100.79        0.00        0.01
   0.00000000  -0.00062101   0.00000000            0.00      -91.35        0.00
   0.00000004   0.00000000  -0.00006720            0.01        0.00       -9.89

     kinetic stress (kbar)  28982.41      0.00      0.00
                                0.00  28892.58      0.00
                                0.00      0.00  29089.84

     local   stress (kbar)  -5265.07     -0.09      0.00
                               -0.09  -5992.22     -0.00
                                0.00     -0.00  -2677.34

     nonloc. stress (kbar)  -8673.16      0.00      0.00
                                0.00  -8735.70      0.00
                                0.00      0.00  -8606.96

     hartree stress (kbar)  13912.98     -0.00     -0.01
                               -0.00  14278.72      0.00
                               -0.01      0.00  12591.32

     exc-cor stress (kbar)  -3291.28      0.00      0.00
                                0.00  -3295.99     -0.00
                                0.00     -0.00  -3286.99

     corecor stress (kbar)  -2826.47     -0.00     -0.00
                               -0.00  -2814.21      0.00
                               -0.00      0.00  -2837.02

     ewald   stress (kbar) -22940.20      0.08      0.01
                                0.08 -22424.54      0.00
                                0.01      0.00 -24282.74

     hubbard stress (kbar)      0.00      0.00      0.00
                                0.00      0.00      0.00
                                0.00      0.00      0.00

     DFT-D   stress (kbar)      0.00      0.00      0.00
                                0.00      0.00      0.00
                                0.00      0.00      0.00

     XDM     stress (kbar)      0.00      0.00      0.00
                                0.00      0.00      0.00
                                0.00      0.00      0.00

     dft-nl  stress (kbar)      0.00      0.00      0.00
                                0.00      0.00      0.00
                                0.00      0.00      0.00

     TS-vdW  stress (kbar)      0.00      0.00      0.00
                                0.00      0.00      0.00
                                0.00      0.00      0.00



     init_run     :   1397.26s CPU   1658.96s WALL (       1 calls)
     electrons    : 118609.77s CPU 144039.77s WALL (       1 calls)
     forces       :    184.05s CPU    246.66s WALL (       1 calls)
     stress       :    621.90s CPU    846.00s WALL (       1 calls)

     Called by init_run:
     wfcinit      :   1376.70s CPU   1633.06s WALL (       1 calls)
     wfcinit:atom :      1.18s CPU      1.44s WALL (     184 calls)
     wfcinit:wfcr :   1369.33s CPU   1624.29s WALL (     184 calls)
     potinit      :      8.10s CPU     10.24s WALL (       1 calls)
     hinit0       :      8.45s CPU     10.09s WALL (       1 calls)

     Called by electrons:
     c_bands      :  99276.74s CPU 121180.02s WALL (      35 calls)
     sum_band     :  19031.26s CPU  22491.42s WALL (      35 calls)
     v_of_rho     :     88.97s CPU    103.38s WALL (      36 calls)
     v_h          :      5.82s CPU      6.75s WALL (      36 calls)
     v_xc         :     87.01s CPU    102.10s WALL (      38 calls)
     newd         :    106.36s CPU    140.10s WALL (      36 calls)
     PAW_pot      :     37.97s CPU     44.61s WALL (      36 calls)
     mix_rho      :     52.83s CPU     62.52s WALL (      35 calls)

     Called by c_bands:
     init_us_2    :    127.53s CPU    165.79s WALL (   13432 calls)
     cegterg      :  98383.84s CPU 120056.75s WALL (    6440 calls)

     Called by sum_band:
     sum_band:wei :      0.36s CPU      0.49s WALL (      35 calls)
     sum_band:loo :  18751.03s CPU  22138.56s WALL (      35 calls)
     sum_band:buf :     35.69s CPU     38.95s WALL (    6440 calls)
     sum_band:ini :     55.51s CPU     72.83s WALL (    6440 calls)
     sum_band:cal :   1659.15s CPU   1938.51s WALL (    6440 calls)
     sum_band:bec :      4.34s CPU      4.68s WALL (    6440 calls)
     addusdens    :    209.07s CPU    276.10s WALL (      35 calls)
     addusd:skk   :      1.25s CPU      1.54s WALL (     105 calls)
     addusd:dgemm :     64.71s CPU     98.36s WALL (     210 calls)
     addusd:qvan2 :    139.65s CPU    171.51s WALL (     210 calls)

     Called by *egterg:
     cdiaghg      :   2604.85s CPU   3235.17s WALL (   26078 calls)
     cegterg:over :   4988.63s CPU   5992.90s WALL (   19638 calls)
     cegterg:upda :   1089.33s CPU   1359.66s WALL (   19638 calls)
     cegterg:last :   2410.93s CPU   3023.96s WALL (   11523 calls)
     h_psi        :  82175.75s CPU 100276.05s WALL (   26262 calls)
     s_psi        :   2193.00s CPU   2729.38s WALL (   26262 calls)
     g_psi        :     15.75s CPU     19.70s WALL (   19638 calls)

     Called by h_psi:
     h_psi:calbec :   4260.10s CPU   5148.62s WALL (   26262 calls)
     vloc_psi     :  75633.09s CPU  92248.94s WALL (   26262 calls)
     add_vuspsi   :   2225.66s CPU   2812.95s WALL (   26262 calls)

     General routines
     calbec       :   6142.67s CPU   7386.55s WALL (   33622 calls)
     fft          :    100.57s CPU    119.17s WALL (     938 calls)
     ffts         :     11.18s CPU     13.25s WALL (     142 calls)
     fftw         :  92269.23s CPU 111959.65s WALL ( 4682542 calls)
     interpolate  :     12.71s CPU     15.29s WALL (      72 calls)

     Parallel routines
     fft_scatt_xy :    499.43s CPU    500.89s WALL ( 4683622 calls)
     fft_scatt_yz :  89320.48s CPU 108970.08s WALL ( 4683622 calls)

     PAW routines
     PAW_pot      :     37.97s CPU     44.61s WALL (      36 calls)
     PAW_symme    :      4.42s CPU      5.17s WALL (      71 calls)

     PWSCF        :   1d 9h33m CPU   1d16h46m WALL


   This run was terminated on:   6:21:50   6Feb2023            

=------------------------------------------------------------------------------=
   JOB DONE.
=------------------------------------------------------------------------------=
Note: The following floating-point exceptions are signalling: IEEE_UNDERFLOW_FLAG IEEE_DENORMAL
Note: The following floating-point exceptions are signalling: IEEE_DENORMAL
Note: The following floating-point exceptions are signalling: IEEE_DENORMAL
Note: The following floating-point exceptions are signalling: IEEE_DENORMAL
Note: The following floating-point exceptions are signalling: IEEE_DENORMAL
Note: The following floating-point exceptions are signalling: IEEE_DENORMAL
Note: The following floating-point exceptions are signalling: IEEE_DENORMAL
Note: The following floating-point exceptions are signalling: IEEE_DENORMAL
Note: The following floating-point exceptions are signalling: IEEE_DENORMAL
