
     Program PWSCF v.6.7MaX starts on 29Jan2023 at 13:37: 2 

     This program is part of the open-source Quantum ESPRESSO suite
     for quantum simulation of materials; please cite
         "P. Giannozzi et al., J. Phys.:Condens. Matter 21 395502 (2009);
         "P. Giannozzi et al., J. Phys.:Condens. Matter 29 465901 (2017);
          URL http://www.quantum-espresso.org", 
     in publications or presentations arising from this work. More details at
     http://www.quantum-espresso.org/quote

     Parallel version (MPI), running on    12 processors

     MPI processes distributed on     1 nodes
     R & G space division:  proc/nbgrp/npool/nimage =      12
     Reading input from scale_1da-00.in

     Current dimensions of program PWSCF are:
     Max number of different atomic species (ntypx) = 10
     Max number of k-points (npk) =  40000
     Max angular momentum in pseudopotentials (lmaxx) =  3
     Message from routine read_pp_mesh:
     mesh size missing, using the one in header
     file Fe.pbe-spn-kjpaw_psl.0.2.1.UPF: wavefunction(s)  3D renormalized
     file O.pbe-n-kjpaw_psl.0.1.UPF: wavefunction(s)  2P renormalized

     Subspace diagonalization in iterative solution of the eigenvalue problem:
     a serial algorithm will be used

     Message from routine setup:
     using ibrav=0 with symmetry is DISCOURAGED, use correct ibrav instead

     Parallelization info
     --------------------
     sticks:   dense  smooth     PW     G-vecs:    dense   smooth      PW
     Min        1572     583    157               102512    23116    3251
     Max        1573     584    159               102513    23117    3252
     Sum       18873    6997   1891              1230153   277403   39017



     bravais-lattice index     =            0
     lattice parameter (alat)  =      18.6818  a.u.
     unit-cell volume          =    2052.3399 (a.u.)^3
     number of atoms/cell      =           28
     number of atomic types    =            4
     number of electrons       =       216.00
     number of Kohn-Sham states=          130
     kinetic-energy cutoff     =     100.0000  Ry
     charge density cutoff     =    1080.0000  Ry
     scf convergence threshold =      2.0E-10
     mixing beta               =       0.4000
     number of iterations used =            8  plain     mixing
     Exchange-correlation= PBE
                           (   1   4   3   4   0   0   0)

     celldm(1)=  18.681804  celldm(2)=   0.000000  celldm(3)=   0.000000
     celldm(4)=   0.000000  celldm(5)=   0.000000  celldm(6)=   0.000000

     crystal axes: (cart. coord. in units of alat)
               a(1) = (   1.000000   0.000000   0.000000 )  
               a(2) = (   0.000000   0.629042   0.000000 )  
               a(3) = (   0.000000   0.000000   0.500395 )  

     reciprocal axes: (cart. coord. in units 2 pi/alat)
               b(1) = (  1.000000  0.000000  0.000000 )  
               b(2) = (  0.000000  1.589719  0.000000 )  
               b(3) = (  0.000000  0.000000  1.998420 )  


     PseudoPot. # 1 for Fe read from file:
     /opt/QEpot/SSSP_precision_pseudos/Fe.pbe-spn-kjpaw_psl.0.2.1.UPF
     MD5 check sum: e86618425769142926afa95317d90200
     Pseudo is Projector augmented-wave + core cor, Zval = 16.0
     Generated using "atomic" code by A. Dal Corso  v.5.0.99 svn rev. 10869
     Shape of augmentation charge: PSQ
     Using radial grid of 1191 points,  6 beta functions with: 
                l(1) =   0
                l(2) =   0
                l(3) =   1
                l(4) =   1
                l(5) =   2
                l(6) =   2
     Q(r) pseudized with 0 coefficients 


     PseudoPot. # 2 for Na read from file:
     /opt/QEpot/SSSP_precision_pseudos/Na_ONCV_PBE-1.0.oncvpsp.upf
     MD5 check sum: 24a298df0a6742ae313db96548fdb2a4
     Pseudo is Norm-conserving, Zval =  9.0
     Generated using ONCVPSP code by D. R. Hamann
     Using radial grid of 1992 points,  4 beta functions with: 
                l(1) =   0
                l(2) =   0
                l(3) =   1
                l(4) =   1

     PseudoPot. # 3 for O  read from file:
     /opt/QEpot/SSSP_precision_pseudos/O.pbe-n-kjpaw_psl.0.1.UPF
     MD5 check sum: 0234752ac141de4415c5fc33072bef88
     Pseudo is Projector augmented-wave + core cor, Zval =  6.0
     Generated using "atomic" code by A. Dal Corso  v.5.0.99 svn rev. 10869
     Shape of augmentation charge: BESSEL
     Using radial grid of 1095 points,  4 beta functions with: 
                l(1) =   0
                l(2) =   0
                l(3) =   1
                l(4) =   1
     Q(r) pseudized with 0 coefficients 


     PseudoPot. # 4 for P  read from file:
     /opt/QEpot/SSSP_precision_pseudos/P.pbe-n-rrkjus_psl.1.0.0.UPF
     MD5 check sum: 8b930f418f0a4573dca56cd030ffe088
     Pseudo is Ultrasoft + core correction, Zval =  5.0
     Generated using "atomic" code by A. Dal Corso  v.5.1
     Using radial grid of 1147 points,  6 beta functions with: 
                l(1) =   0
                l(2) =   0
                l(3) =   1
                l(4) =   1
                l(5) =   2
                l(6) =   2
     Q(r) pseudized with 0 coefficients 


     atomic species   valence    mass     pseudopotential
        Fe            16.00    55.84500     Fe( 1.00)
        Na             9.00    22.98977     Na( 1.00)
        O              6.00    15.99940     O ( 1.00)
        P              5.00    30.97376     P ( 1.00)

     Starting magnetic structure 
     atomic species   magnetization
        Fe           0.312
        Na           0.000
        O            0.000
        P            0.000

      4 Sym. Ops., with inversion, found ( 2 have fractional translation)


                                    s                        frac. trans.

      isym =  1     identity                                     

 cryst.   s( 1) = (     1          0          0      )
                  (     0          1          0      )
                  (     0          0          1      )

 cart.    s( 1) = (  1.0000000  0.0000000  0.0000000 )
                  (  0.0000000  1.0000000  0.0000000 )
                  (  0.0000000  0.0000000  1.0000000 )


      isym =  2     180 deg rotation - cart. axis [0,1,0]        

 cryst.   s( 2) = (    -1          0          0      )    f =(  0.0000000 )
                  (     0          1          0      )       ( -0.4999980 )
                  (     0          0         -1      )       (  0.0000000 )

 cart.    s( 2) = ( -1.0000000  0.0000000  0.0000000 )    f =(  0.0000000 )
                  (  0.0000000  1.0000000  0.0000000 )       ( -0.3145198 )
                  (  0.0000000  0.0000000 -1.0000000 )       (  0.0000000 )


      isym =  3     inversion                                    

 cryst.   s( 3) = (    -1          0          0      )
                  (     0         -1          0      )
                  (     0          0         -1      )

 cart.    s( 3) = ( -1.0000000  0.0000000  0.0000000 )
                  (  0.0000000 -1.0000000  0.0000000 )
                  (  0.0000000  0.0000000 -1.0000000 )


      isym =  4     inv. 180 deg rotation - cart. axis [0,1,0]   

 cryst.   s( 4) = (     1          0          0      )    f =(  0.0000000 )
                  (     0         -1          0      )       (  0.4999980 )
                  (     0          0          1      )       (  0.0000000 )

 cart.    s( 4) = (  1.0000000  0.0000000  0.0000000 )    f =(  0.0000000 )
                  (  0.0000000 -1.0000000  0.0000000 )       (  0.3145198 )
                  (  0.0000000  0.0000000  1.0000000 )       (  0.0000000 )


   Cartesian axes

     site n.     atom                  positions (alat units)
         1           Na  tau(   1) = (   0.0000000   0.0000000   0.0000000  )
         2           Na  tau(   2) = (   0.5000030   0.0000000   0.2501991  )
         3           Na  tau(   3) = (   0.0000000   0.3145223   0.0000000  )
         4           Na  tau(   4) = (   0.5000030   0.3145223   0.2501991  )
         5           Fe  tau(   5) = (   0.2870220   0.4717840   0.4935829  )
         6           Fe  tau(   6) = (   0.2129810   0.1572611   0.2433837  )
         7           Fe  tau(   7) = (   0.7129840   0.1572611   0.0068154  )
         8           Fe  tau(   8) = (   0.7870240   0.4717840   0.2570145  )
         9           P   tau(   9) = (   0.1083410   0.4717840   0.2214814  )
        10           P   tau(  10) = (   0.3916620   0.1572611   0.4716806  )
        11           P   tau(  11) = (   0.8916650   0.1572611   0.2789168  )
        12           P   tau(  12) = (   0.6083440   0.4717840   0.0287177  )
        13           O   tau(  13) = (   0.1140120   0.4717840   0.3765094  )
        14           O   tau(  14) = (   0.3859910   0.1572611   0.1263103  )
        15           O   tau(  15) = (   0.8859940   0.1572611   0.1238894  )
        16           O   tau(  16) = (   0.6140150   0.4717840   0.3740885  )
        17           O   tau(  17) = (   0.4685140   0.4717840   0.0806237  )
        18           O   tau(  18) = (   0.0314890   0.1572611   0.3308228  )
        19           O   tau(  19) = (   0.5314920   0.1572611   0.4197746  )
        20           O   tau(  20) = (   0.9685170   0.4717840   0.1695754  )
        21           O   tau(  21) = (   0.1755910   0.5942038   0.1560302  )
        22           O   tau(  22) = (   0.3244120   0.0348414   0.4062294  )
        23           O   tau(  23) = (   0.8244150   0.2796809   0.3443680  )
        24           O   tau(  24) = (   0.6755940   0.3493643   0.0941689  )
        25           O   tau(  25) = (   0.8244150   0.0348414   0.3443680  )
        26           O   tau(  26) = (   0.6755940   0.5942038   0.0941689  )
        27           O   tau(  27) = (   0.1755910   0.3493643   0.1560302  )
        28           O   tau(  28) = (   0.3244120   0.2796809   0.4062294  )

   Crystallographic axes

     site n.     atom                  positions (cryst. coord.)
         1           Na  tau(   1) = (  0.0000000  0.0000000  0.0000000  )
         2           Na  tau(   2) = (  0.5000030  0.0000000  0.5000030  )
         3           Na  tau(   3) = (  0.0000000  0.5000020  0.0000000  )
         4           Na  tau(   4) = (  0.5000030  0.5000020  0.5000030  )
         5           Fe  tau(   5) = (  0.2870220  0.7500040  0.9863860  )
         6           Fe  tau(   6) = (  0.2129810  0.2500010  0.4863830  )
         7           Fe  tau(   7) = (  0.7129840  0.2500010  0.0136200  )
         8           Fe  tau(   8) = (  0.7870240  0.7500040  0.5136230  )
         9           P   tau(   9) = (  0.1083410  0.7500040  0.4426130  )
        10           P   tau(  10) = (  0.3916620  0.2500010  0.9426160  )
        11           P   tau(  11) = (  0.8916650  0.2500010  0.5573930  )
        12           P   tau(  12) = (  0.6083440  0.7500040  0.0573900  )
        13           O   tau(  13) = (  0.1140120  0.7500040  0.7524240  )
        14           O   tau(  14) = (  0.3859910  0.2500010  0.2524210  )
        15           O   tau(  15) = (  0.8859940  0.2500010  0.2475830  )
        16           O   tau(  16) = (  0.6140150  0.7500040  0.7475860  )
        17           O   tau(  17) = (  0.4685140  0.7500040  0.1611200  )
        18           O   tau(  18) = (  0.0314890  0.2500010  0.6611230  )
        19           O   tau(  19) = (  0.5314920  0.2500010  0.8388860  )
        20           O   tau(  20) = (  0.9685170  0.7500040  0.3388830  )
        21           O   tau(  21) = (  0.1755910  0.9446170  0.3118140  )
        22           O   tau(  22) = (  0.3244120  0.0553880  0.8118170  )
        23           O   tau(  23) = (  0.8244150  0.4446140  0.6881920  )
        24           O   tau(  24) = (  0.6755940  0.5553910  0.1881890  )
        25           O   tau(  25) = (  0.8244150  0.0553880  0.6881920  )
        26           O   tau(  26) = (  0.6755940  0.9446170  0.1881890  )
        27           O   tau(  27) = (  0.1755910  0.5553910  0.3118140  )
        28           O   tau(  28) = (  0.3244120  0.4446140  0.8118170  )

     number of k points=    92  Marzari-Vanderbilt smearing, width (Ry)=  0.0073
                       cart. coord. in units 2pi/alat
        k(    1) = (   0.0000000   0.0000000   0.0000000), wk =   0.0031746
        k(    2) = (   0.0000000   0.0000000   0.2220467), wk =   0.0063492
        k(    3) = (   0.0000000   0.0000000   0.4440934), wk =   0.0063492
        k(    4) = (   0.0000000   0.0000000   0.6661401), wk =   0.0063492
        k(    5) = (   0.0000000   0.0000000   0.8881868), wk =   0.0063492
        k(    6) = (   0.0000000   0.2271027   0.0000000), wk =   0.0063492
        k(    7) = (   0.0000000   0.2271027   0.2220467), wk =   0.0126984
        k(    8) = (   0.0000000   0.2271027   0.4440934), wk =   0.0126984
        k(    9) = (   0.0000000   0.2271027   0.6661401), wk =   0.0126984
        k(   10) = (   0.0000000   0.2271027   0.8881868), wk =   0.0126984
        k(   11) = (   0.0000000   0.4542054   0.0000000), wk =   0.0063492
        k(   12) = (   0.0000000   0.4542054   0.2220467), wk =   0.0126984
        k(   13) = (   0.0000000   0.4542054   0.4440934), wk =   0.0126984
        k(   14) = (   0.0000000   0.4542054   0.6661401), wk =   0.0126984
        k(   15) = (   0.0000000   0.4542054   0.8881868), wk =   0.0126984
        k(   16) = (   0.0000000   0.6813081   0.0000000), wk =   0.0063492
        k(   17) = (   0.0000000   0.6813081   0.2220467), wk =   0.0126984
        k(   18) = (   0.0000000   0.6813081   0.4440934), wk =   0.0126984
        k(   19) = (   0.0000000   0.6813081   0.6661401), wk =   0.0126984
        k(   20) = (   0.0000000   0.6813081   0.8881868), wk =   0.0126984
        k(   21) = (   0.2000000   0.0000000   0.0000000), wk =   0.0063492
        k(   22) = (   0.2000000   0.0000000   0.2220467), wk =   0.0063492
        k(   23) = (   0.2000000   0.0000000   0.4440934), wk =   0.0063492
        k(   24) = (   0.2000000   0.0000000   0.6661401), wk =   0.0063492
        k(   25) = (   0.2000000   0.0000000   0.8881868), wk =   0.0063492
        k(   26) = (   0.2000000   0.2271027   0.0000000), wk =   0.0126984
        k(   27) = (   0.2000000   0.2271027   0.2220467), wk =   0.0126984
        k(   28) = (   0.2000000   0.2271027   0.4440934), wk =   0.0126984
        k(   29) = (   0.2000000   0.2271027   0.6661401), wk =   0.0126984
        k(   30) = (   0.2000000   0.2271027   0.8881868), wk =   0.0126984
        k(   31) = (   0.2000000   0.4542054   0.0000000), wk =   0.0126984
        k(   32) = (   0.2000000   0.4542054   0.2220467), wk =   0.0126984
        k(   33) = (   0.2000000   0.4542054   0.4440934), wk =   0.0126984
        k(   34) = (   0.2000000   0.4542054   0.6661401), wk =   0.0126984
        k(   35) = (   0.2000000   0.4542054   0.8881868), wk =   0.0126984
        k(   36) = (   0.2000000   0.6813081   0.0000000), wk =   0.0126984
        k(   37) = (   0.2000000   0.6813081   0.2220467), wk =   0.0126984
        k(   38) = (   0.2000000   0.6813081   0.4440934), wk =   0.0126984
        k(   39) = (   0.2000000   0.6813081   0.6661401), wk =   0.0126984
        k(   40) = (   0.2000000   0.6813081   0.8881868), wk =   0.0126984
        k(   41) = (   0.4000000   0.0000000   0.0000000), wk =   0.0063492
        k(   42) = (   0.4000000   0.0000000   0.2220467), wk =   0.0063492
        k(   43) = (   0.4000000   0.0000000   0.4440934), wk =   0.0063492
        k(   44) = (   0.4000000   0.0000000   0.6661401), wk =   0.0063492
        k(   45) = (   0.4000000   0.0000000   0.8881868), wk =   0.0063492
        k(   46) = (   0.4000000   0.2271027   0.0000000), wk =   0.0126984
        k(   47) = (   0.4000000   0.2271027   0.2220467), wk =   0.0126984
        k(   48) = (   0.4000000   0.2271027   0.4440934), wk =   0.0126984
        k(   49) = (   0.4000000   0.2271027   0.6661401), wk =   0.0126984
        k(   50) = (   0.4000000   0.2271027   0.8881868), wk =   0.0126984
        k(   51) = (   0.4000000   0.4542054   0.0000000), wk =   0.0126984
        k(   52) = (   0.4000000   0.4542054   0.2220467), wk =   0.0126984
        k(   53) = (   0.4000000   0.4542054   0.4440934), wk =   0.0126984
        k(   54) = (   0.4000000   0.4542054   0.6661401), wk =   0.0126984
        k(   55) = (   0.4000000   0.4542054   0.8881868), wk =   0.0126984
        k(   56) = (   0.4000000   0.6813081   0.0000000), wk =   0.0126984
        k(   57) = (   0.4000000   0.6813081   0.2220467), wk =   0.0126984
        k(   58) = (   0.4000000   0.6813081   0.4440934), wk =   0.0126984
        k(   59) = (   0.4000000   0.6813081   0.6661401), wk =   0.0126984
        k(   60) = (   0.4000000   0.6813081   0.8881868), wk =   0.0126984
        k(   61) = (  -0.2000000   0.0000000   0.2220467), wk =   0.0063492
        k(   62) = (  -0.2000000   0.0000000   0.4440934), wk =   0.0063492
        k(   63) = (  -0.2000000   0.0000000   0.6661401), wk =   0.0063492
        k(   64) = (  -0.2000000   0.0000000   0.8881868), wk =   0.0063492
        k(   65) = (  -0.2000000  -0.2271027   0.2220467), wk =   0.0126984
        k(   66) = (  -0.2000000  -0.2271027   0.4440934), wk =   0.0126984
        k(   67) = (  -0.2000000  -0.2271027   0.6661401), wk =   0.0126984
        k(   68) = (  -0.2000000  -0.2271027   0.8881868), wk =   0.0126984
        k(   69) = (  -0.2000000  -0.4542054   0.2220467), wk =   0.0126984
        k(   70) = (  -0.2000000  -0.4542054   0.4440934), wk =   0.0126984
        k(   71) = (  -0.2000000  -0.4542054   0.6661401), wk =   0.0126984
        k(   72) = (  -0.2000000  -0.4542054   0.8881868), wk =   0.0126984
        k(   73) = (  -0.2000000  -0.6813081   0.2220467), wk =   0.0126984
        k(   74) = (  -0.2000000  -0.6813081   0.4440934), wk =   0.0126984
        k(   75) = (  -0.2000000  -0.6813081   0.6661401), wk =   0.0126984
        k(   76) = (  -0.2000000  -0.6813081   0.8881868), wk =   0.0126984
        k(   77) = (  -0.4000000   0.0000000   0.2220467), wk =   0.0063492
        k(   78) = (  -0.4000000   0.0000000   0.4440934), wk =   0.0063492
        k(   79) = (  -0.4000000   0.0000000   0.6661401), wk =   0.0063492
        k(   80) = (  -0.4000000   0.0000000   0.8881868), wk =   0.0063492
        k(   81) = (  -0.4000000  -0.2271027   0.2220467), wk =   0.0126984
        k(   82) = (  -0.4000000  -0.2271027   0.4440934), wk =   0.0126984
        k(   83) = (  -0.4000000  -0.2271027   0.6661401), wk =   0.0126984
        k(   84) = (  -0.4000000  -0.2271027   0.8881868), wk =   0.0126984
        k(   85) = (  -0.4000000  -0.4542054   0.2220467), wk =   0.0126984
        k(   86) = (  -0.4000000  -0.4542054   0.4440934), wk =   0.0126984
        k(   87) = (  -0.4000000  -0.4542054   0.6661401), wk =   0.0126984
        k(   88) = (  -0.4000000  -0.4542054   0.8881868), wk =   0.0126984
        k(   89) = (  -0.4000000  -0.6813081   0.2220467), wk =   0.0126984
        k(   90) = (  -0.4000000  -0.6813081   0.4440934), wk =   0.0126984
        k(   91) = (  -0.4000000  -0.6813081   0.6661401), wk =   0.0126984
        k(   92) = (  -0.4000000  -0.6813081   0.8881868), wk =   0.0126984

                       cryst. coord.
        k(    1) = (   0.0000000   0.0000000   0.0000000), wk =   0.0031746
        k(    2) = (   0.0000000   0.0000000   0.1111111), wk =   0.0063492
        k(    3) = (   0.0000000   0.0000000   0.2222222), wk =   0.0063492
        k(    4) = (   0.0000000   0.0000000   0.3333333), wk =   0.0063492
        k(    5) = (   0.0000000   0.0000000   0.4444444), wk =   0.0063492
        k(    6) = (   0.0000000   0.1428571   0.0000000), wk =   0.0063492
        k(    7) = (   0.0000000   0.1428571   0.1111111), wk =   0.0126984
        k(    8) = (   0.0000000   0.1428571   0.2222222), wk =   0.0126984
        k(    9) = (   0.0000000   0.1428571   0.3333333), wk =   0.0126984
        k(   10) = (   0.0000000   0.1428571   0.4444444), wk =   0.0126984
        k(   11) = (   0.0000000   0.2857143   0.0000000), wk =   0.0063492
        k(   12) = (   0.0000000   0.2857143   0.1111111), wk =   0.0126984
        k(   13) = (   0.0000000   0.2857143   0.2222222), wk =   0.0126984
        k(   14) = (   0.0000000   0.2857143   0.3333333), wk =   0.0126984
        k(   15) = (   0.0000000   0.2857143   0.4444444), wk =   0.0126984
        k(   16) = (   0.0000000   0.4285714   0.0000000), wk =   0.0063492
        k(   17) = (   0.0000000   0.4285714   0.1111111), wk =   0.0126984
        k(   18) = (   0.0000000   0.4285714   0.2222222), wk =   0.0126984
        k(   19) = (   0.0000000   0.4285714   0.3333333), wk =   0.0126984
        k(   20) = (   0.0000000   0.4285714   0.4444444), wk =   0.0126984
        k(   21) = (   0.2000000   0.0000000   0.0000000), wk =   0.0063492
        k(   22) = (   0.2000000   0.0000000   0.1111111), wk =   0.0063492
        k(   23) = (   0.2000000   0.0000000   0.2222222), wk =   0.0063492
        k(   24) = (   0.2000000   0.0000000   0.3333333), wk =   0.0063492
        k(   25) = (   0.2000000   0.0000000   0.4444444), wk =   0.0063492
        k(   26) = (   0.2000000   0.1428571   0.0000000), wk =   0.0126984
        k(   27) = (   0.2000000   0.1428571   0.1111111), wk =   0.0126984
        k(   28) = (   0.2000000   0.1428571   0.2222222), wk =   0.0126984
        k(   29) = (   0.2000000   0.1428571   0.3333333), wk =   0.0126984
        k(   30) = (   0.2000000   0.1428571   0.4444444), wk =   0.0126984
        k(   31) = (   0.2000000   0.2857143   0.0000000), wk =   0.0126984
        k(   32) = (   0.2000000   0.2857143   0.1111111), wk =   0.0126984
        k(   33) = (   0.2000000   0.2857143   0.2222222), wk =   0.0126984
        k(   34) = (   0.2000000   0.2857143   0.3333333), wk =   0.0126984
        k(   35) = (   0.2000000   0.2857143   0.4444444), wk =   0.0126984
        k(   36) = (   0.2000000   0.4285714   0.0000000), wk =   0.0126984
        k(   37) = (   0.2000000   0.4285714   0.1111111), wk =   0.0126984
        k(   38) = (   0.2000000   0.4285714   0.2222222), wk =   0.0126984
        k(   39) = (   0.2000000   0.4285714   0.3333333), wk =   0.0126984
        k(   40) = (   0.2000000   0.4285714   0.4444444), wk =   0.0126984
        k(   41) = (   0.4000000   0.0000000   0.0000000), wk =   0.0063492
        k(   42) = (   0.4000000   0.0000000   0.1111111), wk =   0.0063492
        k(   43) = (   0.4000000   0.0000000   0.2222222), wk =   0.0063492
        k(   44) = (   0.4000000   0.0000000   0.3333333), wk =   0.0063492
        k(   45) = (   0.4000000   0.0000000   0.4444444), wk =   0.0063492
        k(   46) = (   0.4000000   0.1428571   0.0000000), wk =   0.0126984
        k(   47) = (   0.4000000   0.1428571   0.1111111), wk =   0.0126984
        k(   48) = (   0.4000000   0.1428571   0.2222222), wk =   0.0126984
        k(   49) = (   0.4000000   0.1428571   0.3333333), wk =   0.0126984
        k(   50) = (   0.4000000   0.1428571   0.4444444), wk =   0.0126984
        k(   51) = (   0.4000000   0.2857143   0.0000000), wk =   0.0126984
        k(   52) = (   0.4000000   0.2857143   0.1111111), wk =   0.0126984
        k(   53) = (   0.4000000   0.2857143   0.2222222), wk =   0.0126984
        k(   54) = (   0.4000000   0.2857143   0.3333333), wk =   0.0126984
        k(   55) = (   0.4000000   0.2857143   0.4444444), wk =   0.0126984
        k(   56) = (   0.4000000   0.4285714   0.0000000), wk =   0.0126984
        k(   57) = (   0.4000000   0.4285714   0.1111111), wk =   0.0126984
        k(   58) = (   0.4000000   0.4285714   0.2222222), wk =   0.0126984
        k(   59) = (   0.4000000   0.4285714   0.3333333), wk =   0.0126984
        k(   60) = (   0.4000000   0.4285714   0.4444444), wk =   0.0126984
        k(   61) = (  -0.2000000   0.0000000   0.1111111), wk =   0.0063492
        k(   62) = (  -0.2000000   0.0000000   0.2222222), wk =   0.0063492
        k(   63) = (  -0.2000000   0.0000000   0.3333333), wk =   0.0063492
        k(   64) = (  -0.2000000   0.0000000   0.4444444), wk =   0.0063492
        k(   65) = (  -0.2000000  -0.1428571   0.1111111), wk =   0.0126984
        k(   66) = (  -0.2000000  -0.1428571   0.2222222), wk =   0.0126984
        k(   67) = (  -0.2000000  -0.1428571   0.3333333), wk =   0.0126984
        k(   68) = (  -0.2000000  -0.1428571   0.4444444), wk =   0.0126984
        k(   69) = (  -0.2000000  -0.2857143   0.1111111), wk =   0.0126984
        k(   70) = (  -0.2000000  -0.2857143   0.2222222), wk =   0.0126984
        k(   71) = (  -0.2000000  -0.2857143   0.3333333), wk =   0.0126984
        k(   72) = (  -0.2000000  -0.2857143   0.4444444), wk =   0.0126984
        k(   73) = (  -0.2000000  -0.4285714   0.1111111), wk =   0.0126984
        k(   74) = (  -0.2000000  -0.4285714   0.2222222), wk =   0.0126984
        k(   75) = (  -0.2000000  -0.4285714   0.3333333), wk =   0.0126984
        k(   76) = (  -0.2000000  -0.4285714   0.4444444), wk =   0.0126984
        k(   77) = (  -0.4000000   0.0000000   0.1111111), wk =   0.0063492
        k(   78) = (  -0.4000000   0.0000000   0.2222222), wk =   0.0063492
        k(   79) = (  -0.4000000   0.0000000   0.3333333), wk =   0.0063492
        k(   80) = (  -0.4000000   0.0000000   0.4444444), wk =   0.0063492
        k(   81) = (  -0.4000000  -0.1428571   0.1111111), wk =   0.0126984
        k(   82) = (  -0.4000000  -0.1428571   0.2222222), wk =   0.0126984
        k(   83) = (  -0.4000000  -0.1428571   0.3333333), wk =   0.0126984
        k(   84) = (  -0.4000000  -0.1428571   0.4444444), wk =   0.0126984
        k(   85) = (  -0.4000000  -0.2857143   0.1111111), wk =   0.0126984
        k(   86) = (  -0.4000000  -0.2857143   0.2222222), wk =   0.0126984
        k(   87) = (  -0.4000000  -0.2857143   0.3333333), wk =   0.0126984
        k(   88) = (  -0.4000000  -0.2857143   0.4444444), wk =   0.0126984
        k(   89) = (  -0.4000000  -0.4285714   0.1111111), wk =   0.0126984
        k(   90) = (  -0.4000000  -0.4285714   0.2222222), wk =   0.0126984
        k(   91) = (  -0.4000000  -0.4285714   0.3333333), wk =   0.0126984
        k(   92) = (  -0.4000000  -0.4285714   0.4444444), wk =   0.0126984

     Dense  grid:  1230153 G-vectors     FFT dimensions: ( 200, 128, 100)

     Smooth grid:   277403 G-vectors     FFT dimensions: ( 120,  80,  60)

     Dynamical RAM for                 wfc:       5.73 MB

     Dynamical RAM for     wfc (w. buffer):    1059.82 MB

     Dynamical RAM for           str. fact:       6.26 MB

     Dynamical RAM for           local pot:       0.00 MB

     Dynamical RAM for          nlocal pot:      13.40 MB

     Dynamical RAM for                qrad:      10.54 MB

     Dynamical RAM for          rho,v,vnew:      19.93 MB

     Dynamical RAM for               rhoin:       6.64 MB

     Dynamical RAM for            rho*nmix:      50.06 MB

     Dynamical RAM for           G-vectors:       6.04 MB

     Dynamical RAM for          h,s,v(r/c):       3.09 MB

     Dynamical RAM for          <psi|beta>:       0.60 MB

     Dynamical RAM for                 psi:      11.46 MB

     Dynamical RAM for                hpsi:      11.46 MB

     Dynamical RAM for                spsi:      11.46 MB

     Dynamical RAM for      wfcinit/wfcrot:      13.93 MB

     Dynamical RAM for           addusdens:     317.54 MB

     Dynamical RAM for          addusforce:     364.59 MB

     Dynamical RAM for         addusstress:     316.76 MB

     Estimated static dynamical RAM per process >       1.16 GB

     Estimated max dynamical RAM per process >       1.52 GB

     Estimated total dynamical RAM >      18.23 GB

     Check: negative core charge=   -0.000003
     Generating pointlists ...
     new r_m :   0.0831 (alat units)  1.5525 (a.u.) for type    1
     new r_m :   0.0950 (alat units)  1.7754 (a.u.) for type    2
     new r_m :   0.0615 (alat units)  1.1494 (a.u.) for type    3
     new r_m :   0.0615 (alat units)  1.1494 (a.u.) for type    4

     Initial potential from superposition of free atoms

     starting charge  215.97252, renormalised to  216.00000
     Starting wfcs are  152 randomized atomic wfcs
     Checking if some PAW data can be deallocated... 
       PAW data deallocated on   10 nodes for type:  1
       PAW data deallocated on    4 nodes for type:  3

     total cpu time spent up to now is     1550.2 secs

     Self-consistent Calculation

     iteration #  1     ecut=   100.00 Ry     beta= 0.40
     Davidson diagonalization with overlap
     ethr =  1.00E-02,  avg # of iterations =  3.8

     total cpu time spent up to now is     6365.2 secs

     total energy              =   -2380.58457319 Ry
     estimated scf accuracy    <       5.73960981 Ry

     total magnetization       =    16.00 Bohr mag/cell
     absolute magnetization    =    16.01 Bohr mag/cell

     iteration #  2     ecut=   100.00 Ry     beta= 0.40
     Davidson diagonalization with overlap
     ethr =  2.66E-03,  avg # of iterations =  2.0

     negative rho (up, down):  0.000E+00 7.109E-05

     total cpu time spent up to now is    10764.2 secs

     total energy              =   -2381.89554469 Ry
     estimated scf accuracy    <       0.51155494 Ry

     total magnetization       =    16.00 Bohr mag/cell
     absolute magnetization    =    16.01 Bohr mag/cell

     iteration #  3     ecut=   100.00 Ry     beta= 0.40
     Davidson diagonalization with overlap
     ethr =  2.37E-04,  avg # of iterations =  8.4

     negative rho (up, down):  0.000E+00 7.087E-05

     total cpu time spent up to now is    15881.7 secs

     total energy              =   -2381.75729386 Ry
     estimated scf accuracy    <       7.52358618 Ry

     total magnetization       =    13.62 Bohr mag/cell
     absolute magnetization    =    13.82 Bohr mag/cell

     iteration #  4     ecut=   100.00 Ry     beta= 0.40
     Davidson diagonalization with overlap
     ethr =  2.37E-04,  avg # of iterations =  2.0

     negative rho (up, down):  0.000E+00 2.237E-04

     total cpu time spent up to now is    19700.3 secs

     total energy              =   -2382.01376120 Ry
     estimated scf accuracy    <       0.67073411 Ry

     total magnetization       =    16.00 Bohr mag/cell
     absolute magnetization    =    16.05 Bohr mag/cell

     iteration #  5     ecut=   100.00 Ry     beta= 0.40
     Davidson diagonalization with overlap
     ethr =  2.37E-04,  avg # of iterations =  1.5

     negative rho (up, down):  0.000E+00 3.855E-04

     total cpu time spent up to now is    23349.5 secs

     total energy              =   -2382.02786445 Ry
     estimated scf accuracy    <       1.47101126 Ry

     total magnetization       =    16.00 Bohr mag/cell
     absolute magnetization    =    16.07 Bohr mag/cell

     iteration #  6     ecut=   100.00 Ry     beta= 0.40
     Davidson diagonalization with overlap
     ethr =  2.37E-04,  avg # of iterations =  1.0

     negative rho (up, down):  0.000E+00 5.330E-04

     total cpu time spent up to now is    26895.3 secs

     total energy              =   -2382.06589463 Ry
     estimated scf accuracy    <       0.49821481 Ry

     total magnetization       =    16.00 Bohr mag/cell
     absolute magnetization    =    16.06 Bohr mag/cell

     iteration #  7     ecut=   100.00 Ry     beta= 0.40
     Davidson diagonalization with overlap
     ethr =  2.31E-04,  avg # of iterations =  1.0

     negative rho (up, down):  0.000E+00 5.330E-04

     total cpu time spent up to now is    30450.7 secs

     total energy              =   -2382.07589576 Ry
     estimated scf accuracy    <       0.02293298 Ry

     total magnetization       =    16.00 Bohr mag/cell
     absolute magnetization    =    16.06 Bohr mag/cell

     iteration #  8     ecut=   100.00 Ry     beta= 0.40
     Davidson diagonalization with overlap
     c_bands:  1 eigenvalues not converged
     c_bands:  1 eigenvalues not converged
     ethr =  1.06E-05,  avg # of iterations = 10.1

     negative rho (up, down):  0.000E+00 5.640E-04

     total cpu time spent up to now is    35166.4 secs

     total energy              =   -2382.08137386 Ry
     estimated scf accuracy    <       0.02390584 Ry

     total magnetization       =    16.00 Bohr mag/cell
     absolute magnetization    =    16.06 Bohr mag/cell

     iteration #  9     ecut=   100.00 Ry     beta= 0.40
     Davidson diagonalization with overlap
     ethr =  1.06E-05,  avg # of iterations =  1.6

     negative rho (up, down):  0.000E+00 6.276E-04

     total cpu time spent up to now is    38810.5 secs

     total energy              =   -2382.09293450 Ry
     estimated scf accuracy    <       0.02938972 Ry

     total magnetization       =    16.00 Bohr mag/cell
     absolute magnetization    =    16.06 Bohr mag/cell

     iteration # 10     ecut=   100.00 Ry     beta= 0.40
     Davidson diagonalization with overlap
     ethr =  1.06E-05,  avg # of iterations =  2.4

     negative rho (up, down):  0.000E+00 6.258E-04

     total cpu time spent up to now is    43148.5 secs

     total energy              =   -2382.09389307 Ry
     estimated scf accuracy    <       0.04133004 Ry

     total magnetization       =    16.00 Bohr mag/cell
     absolute magnetization    =    16.06 Bohr mag/cell

     iteration # 11     ecut=   100.00 Ry     beta= 0.40
     Davidson diagonalization with overlap
     ethr =  1.06E-05,  avg # of iterations =  1.5

     negative rho (up, down):  0.000E+00 5.599E-04

     total cpu time spent up to now is    46758.6 secs

     total energy              =   -2382.08615986 Ry
     estimated scf accuracy    <       0.01959426 Ry

     total magnetization       =    16.00 Bohr mag/cell
     absolute magnetization    =    16.06 Bohr mag/cell

     iteration # 12     ecut=   100.00 Ry     beta= 0.40
     Davidson diagonalization with overlap
     ethr =  9.07E-06,  avg # of iterations =  2.2

     negative rho (up, down):  0.000E+00 5.448E-04

     total cpu time spent up to now is    51023.4 secs

     total energy              =   -2382.08957996 Ry
     estimated scf accuracy    <       0.00433633 Ry

     total magnetization       =    16.00 Bohr mag/cell
     absolute magnetization    =    16.07 Bohr mag/cell

     iteration # 13     ecut=   100.00 Ry     beta= 0.40
     Davidson diagonalization with overlap
     c_bands:  1 eigenvalues not converged
     c_bands:  1 eigenvalues not converged
     c_bands:  2 eigenvalues not converged
     c_bands:  1 eigenvalues not converged
     c_bands:  1 eigenvalues not converged
     ethr =  2.01E-06,  avg # of iterations =  5.9

     negative rho (up, down):  0.000E+00 5.138E-04

     total cpu time spent up to now is    55072.3 secs

     total energy              =   -2382.09014103 Ry
     estimated scf accuracy    <       0.00270912 Ry

     total magnetization       =    16.00 Bohr mag/cell
     absolute magnetization    =    16.07 Bohr mag/cell

     iteration # 14     ecut=   100.00 Ry     beta= 0.40
     Davidson diagonalization with overlap
     ethr =  1.25E-06,  avg # of iterations =  2.1

     negative rho (up, down):  0.000E+00 4.908E-04

     total cpu time spent up to now is    58883.8 secs

     total energy              =   -2382.09048029 Ry
     estimated scf accuracy    <       0.00036804 Ry

     total magnetization       =    16.00 Bohr mag/cell
     absolute magnetization    =    16.07 Bohr mag/cell

     iteration # 15     ecut=   100.00 Ry     beta= 0.40
     Davidson diagonalization with overlap
     ethr =  1.70E-07,  avg # of iterations =  4.1

     negative rho (up, down):  0.000E+00 4.891E-04

     total cpu time spent up to now is    63390.6 secs

     total energy              =   -2382.09049252 Ry
     estimated scf accuracy    <       0.00059162 Ry

     total magnetization       =    16.00 Bohr mag/cell
     absolute magnetization    =    16.07 Bohr mag/cell

     iteration # 16     ecut=   100.00 Ry     beta= 0.40
     Davidson diagonalization with overlap
     ethr =  1.70E-07,  avg # of iterations =  1.6

     negative rho (up, down):  0.000E+00 4.784E-04

     total cpu time spent up to now is    67027.0 secs

     total energy              =   -2382.09055634 Ry
     estimated scf accuracy    <       0.00024756 Ry

     total magnetization       =    16.00 Bohr mag/cell
     absolute magnetization    =    16.07 Bohr mag/cell

     iteration # 17     ecut=   100.00 Ry     beta= 0.40
     Davidson diagonalization with overlap
     ethr =  1.15E-07,  avg # of iterations =  1.9

     negative rho (up, down):  0.000E+00 4.758E-04

     total cpu time spent up to now is    70786.8 secs

     total energy              =   -2382.09057538 Ry
     estimated scf accuracy    <       0.00004821 Ry

     total magnetization       =    16.00 Bohr mag/cell
     absolute magnetization    =    16.07 Bohr mag/cell

     iteration # 18     ecut=   100.00 Ry     beta= 0.40
     Davidson diagonalization with overlap
     ethr =  2.23E-08,  avg # of iterations =  3.3

     negative rho (up, down):  0.000E+00 4.747E-04

     total cpu time spent up to now is    74822.2 secs

     total energy              =   -2382.09058256 Ry
     estimated scf accuracy    <       0.00000333 Ry

     total magnetization       =    16.00 Bohr mag/cell
     absolute magnetization    =    16.07 Bohr mag/cell

     iteration # 19     ecut=   100.00 Ry     beta= 0.40
     Davidson diagonalization with overlap
     ethr =  1.54E-09,  avg # of iterations =  5.1

     negative rho (up, down):  0.000E+00 4.735E-04

     total cpu time spent up to now is    80631.5 secs

     total energy              =   -2382.09058523 Ry
     estimated scf accuracy    <       0.00000184 Ry

     total magnetization       =    16.00 Bohr mag/cell
     absolute magnetization    =    16.07 Bohr mag/cell

     iteration # 20     ecut=   100.00 Ry     beta= 0.40
     Davidson diagonalization with overlap
     ethr =  8.53E-10,  avg # of iterations =  2.0

     negative rho (up, down):  0.000E+00 4.741E-04

     total cpu time spent up to now is    84532.5 secs

     total energy              =   -2382.09058619 Ry
     estimated scf accuracy    <       0.00000236 Ry

     total magnetization       =    16.00 Bohr mag/cell
     absolute magnetization    =    16.07 Bohr mag/cell

     iteration # 21     ecut=   100.00 Ry     beta= 0.40
     Davidson diagonalization with overlap
     ethr =  8.53E-10,  avg # of iterations =  2.0

     negative rho (up, down):  0.000E+00 4.745E-04

     total cpu time spent up to now is    88448.5 secs

     total energy              =   -2382.09058723 Ry
     estimated scf accuracy    <       0.00000218 Ry

     total magnetization       =    16.00 Bohr mag/cell
     absolute magnetization    =    16.07 Bohr mag/cell

     iteration # 22     ecut=   100.00 Ry     beta= 0.40
     Davidson diagonalization with overlap
     ethr =  8.53E-10,  avg # of iterations =  2.0

     negative rho (up, down):  0.000E+00 4.746E-04

     total cpu time spent up to now is    92346.1 secs

     total energy              =   -2382.09058599 Ry
     estimated scf accuracy    <       0.00000074 Ry

     total magnetization       =    16.00 Bohr mag/cell
     absolute magnetization    =    16.07 Bohr mag/cell

     iteration # 23     ecut=   100.00 Ry     beta= 0.40
     Davidson diagonalization with overlap
     ethr =  3.45E-10,  avg # of iterations =  4.0

     negative rho (up, down):  0.000E+00 4.748E-04

     total cpu time spent up to now is    97142.9 secs

     total energy              =   -2382.09058195 Ry
     estimated scf accuracy    <       0.00000108 Ry

     total magnetization       =    16.00 Bohr mag/cell
     absolute magnetization    =    16.07 Bohr mag/cell

     iteration # 24     ecut=   100.00 Ry     beta= 0.40
     Davidson diagonalization with overlap
     ethr =  3.45E-10,  avg # of iterations =  4.0

     negative rho (up, down):  0.000E+00 4.745E-04

     total cpu time spent up to now is   102085.2 secs

     total energy              =   -2382.09059034 Ry
     estimated scf accuracy    <       0.00000020 Ry

     total magnetization       =    16.00 Bohr mag/cell
     absolute magnetization    =    16.07 Bohr mag/cell

     iteration # 25     ecut=   100.00 Ry     beta= 0.40
     Davidson diagonalization with overlap
     ethr =  9.24E-11,  avg # of iterations =  3.9

     negative rho (up, down):  0.000E+00 4.748E-04

     total cpu time spent up to now is   106854.1 secs

     total energy              =   -2382.09059131 Ry
     estimated scf accuracy    <       0.00000032 Ry

     total magnetization       =    16.00 Bohr mag/cell
     absolute magnetization    =    16.07 Bohr mag/cell

     iteration # 26     ecut=   100.00 Ry     beta= 0.40
     Davidson diagonalization with overlap
     ethr =  9.24E-11,  avg # of iterations =  2.0

     negative rho (up, down):  0.000E+00 4.747E-04

     total cpu time spent up to now is   110943.3 secs

     total energy              =   -2382.09059174 Ry
     estimated scf accuracy    <       0.00000004 Ry

     total magnetization       =    16.00 Bohr mag/cell
     absolute magnetization    =    16.07 Bohr mag/cell

     iteration # 27     ecut=   100.00 Ry     beta= 0.40
     Davidson diagonalization with overlap
     ethr =  2.01E-11,  avg # of iterations =  2.9

     negative rho (up, down):  0.000E+00 4.747E-04

     total cpu time spent up to now is   114975.5 secs

     total energy              =   -2382.09059185 Ry
     estimated scf accuracy    <       0.00000002 Ry

     total magnetization       =    16.00 Bohr mag/cell
     absolute magnetization    =    16.07 Bohr mag/cell

     iteration # 28     ecut=   100.00 Ry     beta= 0.40
     Davidson diagonalization with overlap
     ethr =  1.13E-11,  avg # of iterations =  2.8

     negative rho (up, down):  0.000E+00 4.747E-04

     total cpu time spent up to now is   119247.5 secs

     total energy              =   -2382.09059189 Ry
     estimated scf accuracy    <       0.00000002 Ry

     total magnetization       =    16.00 Bohr mag/cell
     absolute magnetization    =    16.07 Bohr mag/cell

     iteration # 29     ecut=   100.00 Ry     beta= 0.40
     Davidson diagonalization with overlap
     ethr =  1.12E-11,  avg # of iterations =  3.4

     negative rho (up, down):  0.000E+00 4.747E-04

     total cpu time spent up to now is   123864.2 secs

     total energy              =   -2382.09059180 Ry
     estimated scf accuracy    <       0.00000002 Ry

     total magnetization       =    16.00 Bohr mag/cell
     absolute magnetization    =    16.07 Bohr mag/cell

     iteration # 30     ecut=   100.00 Ry     beta= 0.40
     Davidson diagonalization with overlap
     ethr =  9.19E-12,  avg # of iterations =  4.0

     negative rho (up, down):  0.000E+00 4.749E-04

     total cpu time spent up to now is   128811.2 secs

     total energy              =   -2382.09059110 Ry
     estimated scf accuracy    <       0.00000002 Ry

     total magnetization       =    16.00 Bohr mag/cell
     absolute magnetization    =    16.07 Bohr mag/cell

     iteration # 31     ecut=   100.00 Ry     beta= 0.40
     Davidson diagonalization with overlap
     ethr =  7.00E-12,  avg # of iterations =  5.2

     negative rho (up, down):  0.000E+00 4.751E-04

     total cpu time spent up to now is   134875.8 secs

     total energy              =   -2382.09059074 Ry
     estimated scf accuracy    <          8.8E-09 Ry

     total magnetization       =    16.00 Bohr mag/cell
     absolute magnetization    =    16.07 Bohr mag/cell

     iteration # 32     ecut=   100.00 Ry     beta= 0.40
     Davidson diagonalization with overlap
     ethr =  4.10E-12,  avg # of iterations =  6.3

     negative rho (up, down):  0.000E+00 4.753E-04

     total cpu time spent up to now is   141604.4 secs

     total energy              =   -2382.09059163 Ry
     estimated scf accuracy    <          7.5E-09 Ry

     total magnetization       =    16.00 Bohr mag/cell
     absolute magnetization    =    16.07 Bohr mag/cell

     iteration # 33     ecut=   100.00 Ry     beta= 0.40
     Davidson diagonalization with overlap
     ethr =  3.49E-12,  avg # of iterations =  5.1

     negative rho (up, down):  0.000E+00 4.754E-04

     total cpu time spent up to now is   147384.5 secs

     total energy              =   -2382.09059201 Ry
     estimated scf accuracy    <          1.4E-09 Ry

     total magnetization       =    16.00 Bohr mag/cell
     absolute magnetization    =    16.07 Bohr mag/cell

     iteration # 34     ecut=   100.00 Ry     beta= 0.40
     Davidson diagonalization with overlap
     ethr =  6.26E-13,  avg # of iterations =  6.1

     negative rho (up, down):  0.000E+00 4.754E-04

     total cpu time spent up to now is   154179.6 secs

     total energy              =   -2382.09059223 Ry
     estimated scf accuracy    <          3.3E-10 Ry

     total magnetization       =    16.00 Bohr mag/cell
     absolute magnetization    =    16.07 Bohr mag/cell

     iteration # 35     ecut=   100.00 Ry     beta= 0.40
     Davidson diagonalization with overlap
     ethr =  1.53E-13,  avg # of iterations =  5.3

     negative rho (up, down):  0.000E+00 4.754E-04

     total cpu time spent up to now is   160172.4 secs

     total energy              =   -2382.09059230 Ry
     estimated scf accuracy    <          4.4E-10 Ry

     total magnetization       =    16.00 Bohr mag/cell
     absolute magnetization    =    16.07 Bohr mag/cell

     iteration # 36     ecut=   100.00 Ry     beta= 0.40
     Davidson diagonalization with overlap
     ethr =  1.53E-13,  avg # of iterations =  2.5

     negative rho (up, down):  0.000E+00 4.754E-04

     Magnetic moment per site:
     atom:    1    charge:    7.9545    magn:   -0.0000    constr:    0.0000
     atom:    2    charge:    7.9545    magn:   -0.0000    constr:    0.0000
     atom:    3    charge:    7.9545    magn:   -0.0000    constr:    0.0000
     atom:    4    charge:    7.9545    magn:   -0.0000    constr:    0.0000
     atom:    5    charge:   13.1890    magn:    3.2841    constr:    0.0000
     atom:    6    charge:   13.1890    magn:    3.2841    constr:    0.0000
     atom:    7    charge:   13.1890    magn:    3.2841    constr:    0.0000
     atom:    8    charge:   13.1890    magn:    3.2841    constr:    0.0000
     atom:    9    charge:    0.7720    magn:    0.0057    constr:    0.0000
     atom:   10    charge:    0.7720    magn:    0.0057    constr:    0.0000
     atom:   11    charge:    0.7720    magn:    0.0057    constr:    0.0000
     atom:   12    charge:    0.7720    magn:    0.0057    constr:    0.0000
     atom:   13    charge:    4.0611    magn:    0.0318    constr:    0.0000
     atom:   14    charge:    4.0611    magn:    0.0318    constr:    0.0000
     atom:   15    charge:    4.0611    magn:    0.0318    constr:    0.0000
     atom:   16    charge:    4.0611    magn:    0.0318    constr:    0.0000
     atom:   17    charge:    4.1138    magn:    0.0440    constr:    0.0000
     atom:   18    charge:    4.1138    magn:    0.0440    constr:    0.0000
     atom:   19    charge:    4.1138    magn:    0.0440    constr:    0.0000
     atom:   20    charge:    4.1139    magn:    0.0440    constr:    0.0000
     atom:   21    charge:    4.0639    magn:    0.0755    constr:    0.0000
     atom:   22    charge:    4.0639    magn:    0.0755    constr:    0.0000
     atom:   23    charge:    4.0639    magn:    0.0755    constr:    0.0000
     atom:   24    charge:    4.0639    magn:    0.0755    constr:    0.0000
     atom:   25    charge:    4.0639    magn:    0.0755    constr:    0.0000
     atom:   26    charge:    4.0639    magn:    0.0755    constr:    0.0000
     atom:   27    charge:    4.0639    magn:    0.0755    constr:    0.0000
     atom:   28    charge:    4.0639    magn:    0.0755    constr:    0.0000

     total cpu time spent up to now is   164687.1 secs

     End of self-consistent calculation

 ------ SPIN UP ------------


          k = 0.0000 0.0000 0.0000 ( 34615 PWs)   bands (ev):

   -80.2238 -80.2235 -80.2224 -80.2219 -47.1012 -47.1002 -47.0996 -47.0987
   -46.2073 -46.2070 -46.2059 -46.2053 -45.5421 -45.5414 -45.5405 -45.5398
   -42.3030 -42.3029 -42.2946 -42.2945 -14.7831 -14.7506 -14.4993 -14.3839
   -14.3789 -14.3404 -14.3322 -14.3319 -14.3267 -14.3181 -14.2748 -14.2742
   -14.2395 -14.2392 -13.8091 -13.7489 -11.6943 -11.5347 -11.5039 -11.4920
   -11.4875 -11.4528 -11.4011 -11.3820 -11.3451 -11.3035 -11.2980 -11.2230
    -1.5227  -1.0075  -0.9193  -0.8336  -0.1260   0.4549   0.4900   0.5330
     0.7324   0.8388   1.1892   1.2041   1.2804   1.3028   1.3323   1.6667
     2.4341   2.6249   2.9168   2.9670   3.0718   3.2358   3.2676   3.3962
     3.4548   3.5224   3.6034   3.7134   3.8254   3.9829   3.9843   4.0161
     4.0379   4.1720   4.2329   4.2377   4.2979   4.5203   4.6623   4.7690
     4.8507   4.8874   4.9218   5.3131   5.3195   5.4745   5.8696   6.0816
     6.1582   6.2183   6.2453   6.5632   6.5810   6.6403   6.6740   6.6841
     6.8438   7.0992   7.3721   7.3909   7.4309   7.5109   7.5353   7.7907
     7.8173   8.0354   8.1697   8.1725  11.3854  13.4287  13.6037  13.9710
    14.5569  14.7137  15.1877  15.9531  16.1669  16.2514  16.3767  16.3873
    16.4337  16.4494

     occupation numbers 
     1.0000   1.0000   1.0000   1.0000   1.0000   1.0000   1.0000   1.0000
     1.0000   1.0000   1.0000   1.0000   1.0000   1.0000   1.0000   1.0000
     1.0000   1.0000   1.0000   1.0000   1.0000   1.0000   1.0000   1.0000
     1.0000   1.0000   1.0000   1.0000   1.0000   1.0000   1.0000   1.0000
     1.0000   1.0000   1.0000   1.0000   1.0000   1.0000   1.0000   1.0000
     1.0000   1.0000   1.0000   1.0000   1.0000   1.0000   1.0000   1.0000
     1.0000   1.0000   1.0000   1.0000   1.0000   1.0000   1.0000   1.0000
     1.0000   1.0000   1.0000   1.0000   1.0000   1.0000   1.0000   1.0000
     1.0000   1.0000   1.0000   1.0000   1.0000   1.0000   1.0000   1.0000
     1.0000   1.0000   1.0000   1.0000   1.0000   1.0000   1.0000   1.0000
     1.0000   1.0000   1.0000   1.0000   1.0000   1.0000   1.0000   1.0000
     1.0000   1.0000   1.0000   1.0000   1.0000   1.0000   1.0000   1.0000
     1.0000   1.0000   1.0000   1.0000   1.0000   1.0000   1.0000   1.0000
     1.0000   1.0000   1.0000   1.0000   1.0000   1.0000   1.0000   1.0000
     1.0000   1.0000   1.0000   1.0000   0.0000   0.0000   0.0000   0.0000
     0.0000   0.0000   0.0000   0.0000   0.0000   0.0000   0.0000   0.0000
     0.0000   0.0000

          k = 0.0000 0.0000 0.2220 ( 34593 PWs)   bands (ev):

   -80.2238 -80.2235 -80.2224 -80.2219 -47.1011 -47.1003 -47.0996 -47.0987
   -46.2073 -46.2070 -46.2059 -46.2053 -45.5420 -45.5414 -45.5405 -45.5398
   -42.3030 -42.3029 -42.2946 -42.2945 -14.7813 -14.7471 -14.5323 -14.4438
   -14.3741 -14.3500 -14.3319 -14.3270 -14.2862 -14.2749 -14.2743 -14.2396
   -14.2394 -14.2188 -13.8233 -13.7664 -11.6996 -11.5274 -11.5267 -11.4837
   -11.4730 -11.4636 -11.3976 -11.3887 -11.3544 -11.3120 -11.3061 -11.2307
    -1.4969  -1.0088  -0.9233  -0.8180  -0.0605   0.5070   0.5077   0.5884
     0.7348   0.8594   1.1986   1.2105   1.2777   1.2887   1.2974   1.6535
     2.4346   2.6164   2.9145   2.9276   3.0862   3.1782   3.2831   3.3664
     3.3722   3.3768   3.6285   3.7952   3.8060   3.9330   3.9388   3.9871
     3.9907   4.0546   4.3490   4.3649   4.4277   4.5440   4.5744   4.7427
     4.8227   4.9139   4.9853   5.3099   5.3375   5.5071   5.8559   6.0516
     6.1476   6.2232   6.2352   6.5640   6.5826   6.6065   6.6385   6.6577
     6.8777   7.1140   7.4088   7.4294   7.4370   7.5242   7.5420   7.7663
     7.7983   7.9959   8.1677   8.1834  11.5335  13.4605  13.6896  13.9684
    14.5862  14.6508  15.3450  15.6183  16.0304  16.1427  16.1459  16.3114
    16.5695  16.5838

     occupation numbers 
     1.0000   1.0000   1.0000   1.0000   1.0000   1.0000   1.0000   1.0000
     1.0000   1.0000   1.0000   1.0000   1.0000   1.0000   1.0000   1.0000
     1.0000   1.0000   1.0000   1.0000   1.0000   1.0000   1.0000   1.0000
     1.0000   1.0000   1.0000   1.0000   1.0000   1.0000   1.0000   1.0000
     1.0000   1.0000   1.0000   1.0000   1.0000   1.0000   1.0000   1.0000
     1.0000   1.0000   1.0000   1.0000   1.0000   1.0000   1.0000   1.0000
     1.0000   1.0000   1.0000   1.0000   1.0000   1.0000   1.0000   1.0000
     1.0000   1.0000   1.0000   1.0000   1.0000   1.0000   1.0000   1.0000
     1.0000   1.0000   1.0000   1.0000   1.0000   1.0000   1.0000   1.0000
     1.0000   1.0000   1.0000   1.0000   1.0000   1.0000   1.0000   1.0000
     1.0000   1.0000   1.0000   1.0000   1.0000   1.0000   1.0000   1.0000
     1.0000   1.0000   1.0000   1.0000   1.0000   1.0000   1.0000   1.0000
     1.0000   1.0000   1.0000   1.0000   1.0000   1.0000   1.0000   1.0000
     1.0000   1.0000   1.0000   1.0000   1.0000   1.0000   1.0000   1.0000
     1.0000   1.0000   1.0000   1.0000   0.0000   0.0000   0.0000   0.0000
     0.0000   0.0000   0.0000   0.0000   0.0000   0.0000   0.0000   0.0000
     0.0000   0.0000

          k = 0.0000 0.0000 0.4441 ( 34664 PWs)   bands (ev):

   -80.2238 -80.2235 -80.2224 -80.2219 -47.1011 -47.1003 -47.0996 -47.0988
   -46.2073 -46.2070 -46.2059 -46.2053 -45.5420 -45.5414 -45.5405 -45.5398
   -42.3030 -42.3029 -42.2946 -42.2945 -14.7880 -14.7507 -14.5432 -14.4920
   -14.3690 -14.3482 -14.3319 -14.3280 -14.2752 -14.2747 -14.2399 -14.2396
   -14.1905 -14.1262 -13.8550 -13.8047 -11.7083 -11.5687 -11.5126 -11.5022
   -11.4600 -11.4529 -11.4004 -11.3946 -11.3875 -11.3266 -11.3140 -11.2526
    -1.4233  -1.0067  -0.9381  -0.8082   0.1409   0.5704   0.6394   0.7232
     0.7475   0.9083   1.2044   1.2176   1.2447   1.2775   1.2776   1.6080
     2.4313   2.5973   2.8349   2.9062   3.0795   3.1106   3.1278   3.2498
     3.2622   3.3114   3.6039   3.7540   3.7704   3.8149   3.8290   3.9156
     3.9528   4.0011   4.4272   4.5175   4.5660   4.6292   4.6506   4.7217
     4.7831   4.9591   5.0392   5.2940   5.4100   5.5979   5.8099   5.9909
     6.1338   6.2084   6.2370   6.4639   6.5403   6.5559   6.6215   6.6569
     6.9706   7.1644   7.4544   7.4653   7.4962   7.5536   7.5889   7.6945
     7.7408   7.9219   8.1573   8.1945  11.9244  13.5462  13.7965  14.0714
    14.6204  14.6509  15.1760  15.5889  15.7630  15.8730  15.8937  16.0810
    16.3074  16.5655

     occupation numbers 
     1.0000   1.0000   1.0000   1.0000   1.0000   1.0000   1.0000   1.0000
     1.0000   1.0000   1.0000   1.0000   1.0000   1.0000   1.0000   1.0000
     1.0000   1.0000   1.0000   1.0000   1.0000   1.0000   1.0000   1.0000
     1.0000   1.0000   1.0000   1.0000   1.0000   1.0000   1.0000   1.0000
     1.0000   1.0000   1.0000   1.0000   1.0000   1.0000   1.0000   1.0000
     1.0000   1.0000   1.0000   1.0000   1.0000   1.0000   1.0000   1.0000
     1.0000   1.0000   1.0000   1.0000   1.0000   1.0000   1.0000   1.0000
     1.0000   1.0000   1.0000   1.0000   1.0000   1.0000   1.0000   1.0000
     1.0000   1.0000   1.0000   1.0000   1.0000   1.0000   1.0000   1.0000
     1.0000   1.0000   1.0000   1.0000   1.0000   1.0000   1.0000   1.0000
     1.0000   1.0000   1.0000   1.0000   1.0000   1.0000   1.0000   1.0000
     1.0000   1.0000   1.0000   1.0000   1.0000   1.0000   1.0000   1.0000
     1.0000   1.0000   1.0000   1.0000   1.0000   1.0000   1.0000   1.0000
     1.0000   1.0000   1.0000   1.0000   1.0000   1.0000   1.0000   1.0000
     1.0000   1.0000   1.0000   1.0000   0.0000   0.0000   0.0000   0.0000
     0.0000   0.0000   0.0000   0.0000   0.0000   0.0000   0.0000   0.0000
     0.0000   0.0000

          k = 0.0000 0.0000 0.6661 ( 34722 PWs)   bands (ev):

   -80.2239 -80.2235 -80.2224 -80.2219 -47.1010 -47.1004 -47.0995 -47.0989
   -46.2073 -46.2070 -46.2059 -46.2053 -45.5420 -45.5415 -45.5405 -45.5399
   -42.3030 -42.3029 -42.2946 -42.2945 -14.8068 -14.7769 -14.4993 -14.4782
   -14.3623 -14.3422 -14.3318 -14.3293 -14.2754 -14.2751 -14.2401 -14.2399
   -14.1400 -14.1053 -13.8658 -13.8229 -11.7089 -11.6193 -11.5493 -11.5169
   -11.4495 -11.4378 -11.4244 -11.3895 -11.3721 -11.3364 -11.3273 -11.2859
    -1.3125  -0.9912  -0.9782  -0.8440   0.4444   0.6871   0.7654   0.7831
     0.8684   0.9532   1.0803   1.1521   1.2971   1.3628   1.3860   1.5280
     2.4133   2.5956   2.7206   2.9033   2.9052   2.9099   3.0910   3.1893
     3.2153   3.2487   3.2602   3.5959   3.7262   3.7616   3.8422   3.9089
     3.9791   4.0196   4.2862   4.4655   4.6471   4.7923   4.7992   4.8034
     4.9060   4.9987   5.1135   5.2519   5.4598   5.6788   5.7641   5.9682
     6.1443   6.1809   6.2619   6.3499   6.4393   6.4813   6.6256   6.6887
     7.1066   7.2582   7.4775   7.4844   7.5502   7.5759   7.5803   7.6466
     7.6775   7.8572   8.1511   8.1890  12.4436  13.6860  13.6948  14.2868
    14.6703  14.6741  15.0091  15.4682  15.4962  15.7570  15.7691  15.9741
    16.0497  16.5032

     occupation numbers 
     1.0000   1.0000   1.0000   1.0000   1.0000   1.0000   1.0000   1.0000
     1.0000   1.0000   1.0000   1.0000   1.0000   1.0000   1.0000   1.0000
     1.0000   1.0000   1.0000   1.0000   1.0000   1.0000   1.0000   1.0000
     1.0000   1.0000   1.0000   1.0000   1.0000   1.0000   1.0000   1.0000
     1.0000   1.0000   1.0000   1.0000   1.0000   1.0000   1.0000   1.0000
     1.0000   1.0000   1.0000   1.0000   1.0000   1.0000   1.0000   1.0000
     1.0000   1.0000   1.0000   1.0000   1.0000   1.0000   1.0000   1.0000
     1.0000   1.0000   1.0000   1.0000   1.0000   1.0000   1.0000   1.0000
     1.0000   1.0000   1.0000   1.0000   1.0000   1.0000   1.0000   1.0000
     1.0000   1.0000   1.0000   1.0000   1.0000   1.0000   1.0000   1.0000
     1.0000   1.0000   1.0000   1.0000   1.0000   1.0000   1.0000   1.0000
     1.0000   1.0000   1.0000   1.0000   1.0000   1.0000   1.0000   1.0000
     1.0000   1.0000   1.0000   1.0000   1.0000   1.0000   1.0000   1.0000
     1.0000   1.0000   1.0000   1.0000   1.0000   1.0000   1.0000   1.0000
     1.0000   1.0000   1.0000   1.0000   0.0000   0.0000   0.0000   0.0000
     0.0000   0.0000   0.0000   0.0000   0.0000   0.0000   0.0000   0.0000
     0.0000   0.0000

          k = 0.0000 0.0000 0.8882 ( 34692 PWs)   bands (ev):

   -80.2238 -80.2235 -80.2224 -80.2219 -47.1009 -47.1005 -47.0994 -47.0990
   -46.2073 -46.2070 -46.2059 -46.2053 -45.5420 -45.5415 -45.5404 -45.5399
   -42.3030 -42.3029 -42.2946 -42.2945 -14.8165 -14.8055 -14.4475 -14.4445
   -14.3458 -14.3338 -14.3314 -14.3304 -14.2755 -14.2754 -14.2402 -14.2401
   -14.1551 -14.1472 -13.8374 -13.8192 -11.6950 -11.6650 -11.5739 -11.5585
   -11.4486 -11.4384 -11.3829 -11.3716 -11.3524 -11.3514 -11.3477 -11.3239
    -1.1823  -1.0604  -0.9578  -0.9060   0.6997   0.7896   0.8520   0.8603
     0.9550   0.9575   0.9860   1.0557   1.3488   1.4319   1.5096   1.5233
     2.4248   2.5588   2.6446   2.7520   2.7531   2.8235   2.9407   3.0142
     3.2207   3.2398   3.2916   3.4208   3.7175   3.7273   3.8539   3.8733
     4.0519   4.1397   4.1585   4.3055   4.7374   4.7965   4.8348   4.8581
     5.0696   5.1412   5.1728   5.2527   5.4274   5.5532   5.8734   5.9599
     6.1883   6.2234   6.2584   6.3003   6.3538   6.3576   6.6571   6.6850
     7.2679   7.3858   7.4328   7.4931   7.4938   7.5230   7.5756   7.5807
     7.7549   7.8090   8.1573   8.1732  12.9760  13.4203  13.8895  14.1273
    14.7552  14.8431  15.0300  15.2420  15.4669  15.6800  15.7537  15.8476
    15.9829  16.1999

     occupation numbers 
     1.0000   1.0000   1.0000   1.0000   1.0000   1.0000   1.0000   1.0000
     1.0000   1.0000   1.0000   1.0000   1.0000   1.0000   1.0000   1.0000
     1.0000   1.0000   1.0000   1.0000   1.0000   1.0000   1.0000   1.0000
     1.0000   1.0000   1.0000   1.0000   1.0000   1.0000   1.0000   1.0000
     1.0000   1.0000   1.0000   1.0000   1.0000   1.0000   1.0000   1.0000
     1.0000   1.0000   1.0000   1.0000   1.0000   1.0000   1.0000   1.0000
     1.0000   1.0000   1.0000   1.0000   1.0000   1.0000   1.0000   1.0000
     1.0000   1.0000   1.0000   1.0000   1.0000   1.0000   1.0000   1.0000
     1.0000   1.0000   1.0000   1.0000   1.0000   1.0000   1.0000   1.0000
     1.0000   1.0000   1.0000   1.0000   1.0000   1.0000   1.0000   1.0000
     1.0000   1.0000   1.0000   1.0000   1.0000   1.0000   1.0000   1.0000
     1.0000   1.0000   1.0000   1.0000   1.0000   1.0000   1.0000   1.0000
     1.0000   1.0000   1.0000   1.0000   1.0000   1.0000   1.0000   1.0000
     1.0000   1.0000   1.0000   1.0000   1.0000   1.0000   1.0000   1.0000
     1.0000   1.0000   1.0000   1.0000   0.0000   0.0000   0.0000   0.0000
     0.0000   0.0000   0.0000   0.0000   0.0000   0.0000   0.0000   0.0000
     0.0000   0.0000

          k = 0.0000 0.2271 0.0000 ( 34607 PWs)   bands (ev):

   -80.2238 -80.2235 -80.2224 -80.2219 -47.1011 -47.1003 -47.0996 -47.0988
   -46.2073 -46.2070 -46.2059 -46.2053 -45.5420 -45.5414 -45.5405 -45.5398
   -42.3026 -42.3025 -42.2950 -42.2949 -14.7707 -14.7422 -14.5267 -14.4173
   -14.3797 -14.3747 -14.3359 -14.3286 -14.3166 -14.3105 -14.2573 -14.2495
   -14.2346 -14.1921 -13.8203 -13.7732 -11.7007 -11.5355 -11.5307 -11.5087
   -11.4775 -11.4454 -11.3779 -11.3621 -11.3490 -11.3135 -11.2882 -11.2368
    -1.4907  -0.9853  -0.9473  -0.8245  -0.0826   0.4711   0.4961   0.5103
     0.7860   0.8434   1.1339   1.1853   1.3057   1.3473   1.3750   1.6319
     2.4548   2.6320   2.8613   2.9620   2.9921   3.1677   3.3320   3.3533
     3.4431   3.4703   3.6570   3.6629   3.7859   3.9006   4.0060   4.0475
     4.0747   4.1612   4.2051   4.3490   4.3673   4.5185   4.6099   4.7609
     4.8891   4.8984   4.9060   5.2919   5.3472   5.4363   5.8038   6.0238
     6.1454   6.1952   6.2819   6.4185   6.5482   6.6942   6.7095   6.8125
     6.8205   7.0696   7.3931   7.4196   7.4726   7.4974   7.5645   7.6670
     7.6713   8.1473   8.2158   8.2312  11.5383  13.5106  13.6923  13.9393
    14.6327  14.8059  15.1528  15.8203  16.1074  16.1552  16.3408  16.3974
    16.4154  16.6573

     occupation numbers 
     1.0000   1.0000   1.0000   1.0000   1.0000   1.0000   1.0000   1.0000
     1.0000   1.0000   1.0000   1.0000   1.0000   1.0000   1.0000   1.0000
     1.0000   1.0000   1.0000   1.0000   1.0000   1.0000   1.0000   1.0000
     1.0000   1.0000   1.0000   1.0000   1.0000   1.0000   1.0000   1.0000
     1.0000   1.0000   1.0000   1.0000   1.0000   1.0000   1.0000   1.0000
     1.0000   1.0000   1.0000   1.0000   1.0000   1.0000   1.0000   1.0000
     1.0000   1.0000   1.0000   1.0000   1.0000   1.0000   1.0000   1.0000
     1.0000   1.0000   1.0000   1.0000   1.0000   1.0000   1.0000   1.0000
     1.0000   1.0000   1.0000   1.0000   1.0000   1.0000   1.0000   1.0000
     1.0000   1.0000   1.0000   1.0000   1.0000   1.0000   1.0000   1.0000
     1.0000   1.0000   1.0000   1.0000   1.0000   1.0000   1.0000   1.0000
     1.0000   1.0000   1.0000   1.0000   1.0000   1.0000   1.0000   1.0000
     1.0000   1.0000   1.0000   1.0000   1.0000   1.0000   1.0000   1.0000
     1.0000   1.0000   1.0000   1.0000   1.0000   1.0000   1.0000   1.0000
     1.0000   1.0000   1.0000   1.0000   0.0000   0.0000   0.0000   0.0000
     0.0000   0.0000   0.0000   0.0000   0.0000   0.0000   0.0000   0.0000
     0.0000   0.0000

          k = 0.0000 0.2271 0.2220 ( 34613 PWs)   bands (ev):

   -80.2238 -80.2235 -80.2224 -80.2219 -47.1011 -47.1003 -47.0996 -47.0988
   -46.2073 -46.2070 -46.2059 -46.2053 -45.5420 -45.5414 -45.5405 -45.5398
   -42.3026 -42.3025 -42.2950 -42.2949 -14.7687 -14.7384 -14.5461 -14.4637
   -14.3742 -14.3614 -14.3315 -14.3305 -14.3031 -14.2979 -14.2498 -14.2477
   -14.2183 -14.1571 -13.8328 -13.7878 -11.7039 -11.5424 -11.5244 -11.5086
   -11.4737 -11.4561 -11.3818 -11.3620 -11.3598 -11.3236 -11.2948 -11.2410
    -1.4652  -0.9861  -0.9443  -0.8133  -0.0199   0.5143   0.5156   0.5715
     0.7878   0.8643   1.1485   1.1943   1.2895   1.3374   1.3413   1.6183
     2.4560   2.6149   2.8600   2.9471   2.9669   3.1520   3.2387   3.3076
     3.3753   3.4797   3.6584   3.6956   3.7794   3.8557   3.9552   4.0069
     4.0858   4.0978   4.2957   4.4351   4.4500   4.4594   4.6263   4.7457
     4.8508   4.9271   4.9550   5.3035   5.3443   5.4647   5.7897   5.9980
     6.1366   6.1872   6.2857   6.4355   6.5531   6.6469   6.6945   6.7679
     6.8553   7.0814   7.4254   7.4256   7.5118   7.5177   7.5644   7.6395
     7.6548   8.1115   8.2118   8.2447  11.6816  13.5439  13.7791  13.9626
    14.6504  14.7270  15.3279  15.4968  16.0585  16.0818  16.1510  16.3944
    16.5533  16.5799

     occupation numbers 
     1.0000   1.0000   1.0000   1.0000   1.0000   1.0000   1.0000   1.0000
     1.0000   1.0000   1.0000   1.0000   1.0000   1.0000   1.0000   1.0000
     1.0000   1.0000   1.0000   1.0000   1.0000   1.0000   1.0000   1.0000
     1.0000   1.0000   1.0000   1.0000   1.0000   1.0000   1.0000   1.0000
     1.0000   1.0000   1.0000   1.0000   1.0000   1.0000   1.0000   1.0000
     1.0000   1.0000   1.0000   1.0000   1.0000   1.0000   1.0000   1.0000
     1.0000   1.0000   1.0000   1.0000   1.0000   1.0000   1.0000   1.0000
     1.0000   1.0000   1.0000   1.0000   1.0000   1.0000   1.0000   1.0000
     1.0000   1.0000   1.0000   1.0000   1.0000   1.0000   1.0000   1.0000
     1.0000   1.0000   1.0000   1.0000   1.0000   1.0000   1.0000   1.0000
     1.0000   1.0000   1.0000   1.0000   1.0000   1.0000   1.0000   1.0000
     1.0000   1.0000   1.0000   1.0000   1.0000   1.0000   1.0000   1.0000
     1.0000   1.0000   1.0000   1.0000   1.0000   1.0000   1.0000   1.0000
     1.0000   1.0000   1.0000   1.0000   1.0000   1.0000   1.0000   1.0000
     1.0000   1.0000   1.0000   1.0000   0.0000   0.0000   0.0000   0.0000
     0.0000   0.0000   0.0000   0.0000   0.0000   0.0000   0.0000   0.0000
     0.0000   0.0000

          k = 0.0000 0.2271 0.4441 ( 34660 PWs)   bands (ev):

   -80.2238 -80.2235 -80.2224 -80.2219 -47.1011 -47.1003 -47.0995 -47.0988
   -46.2073 -46.2070 -46.2059 -46.2053 -45.5420 -45.5414 -45.5405 -45.5399
   -42.3026 -42.3025 -42.2950 -42.2949 -14.7743 -14.7402 -14.5488 -14.5004
   -14.3706 -14.3571 -14.3315 -14.3307 -14.2922 -14.2911 -14.2476 -14.2472
   -14.1516 -14.0913 -13.8606 -13.8192 -11.7085 -11.5723 -11.5111 -11.5021
   -11.4895 -11.4613 -11.4126 -11.3791 -11.3539 -11.3366 -11.3071 -11.2561
    -1.3925  -0.9839  -0.9439  -0.8102   0.1740   0.5762   0.6411   0.7033
     0.8054   0.9134   1.1924   1.2345   1.2527   1.2575   1.3228   1.5740
     2.4472   2.5827   2.8223   2.8800   2.9651   3.0485   3.0503   3.2767
     3.3027   3.4420   3.6101   3.6135   3.7730   3.7786   3.8679   3.9138
     4.0117   4.0719   4.3505   4.4875   4.5534   4.6473   4.6661   4.7743
     4.8057   4.9692   5.0019   5.3188   5.3723   5.5429   5.7462   5.9372
     6.1244   6.1745   6.2971   6.4540   6.5476   6.5669   6.6507   6.7116
     6.9274   7.1175   7.4406   7.4806   7.5451   7.5677   7.5736   7.5969
     7.6231   8.0433   8.2040   8.2546  12.0619  13.6311  13.8755  14.1358
    14.6908  14.6996  15.0925  15.5983  15.8131  15.8148  15.9930  16.0861
    16.2866  16.5795

     occupation numbers 
     1.0000   1.0000   1.0000   1.0000   1.0000   1.0000   1.0000   1.0000
     1.0000   1.0000   1.0000   1.0000   1.0000   1.0000   1.0000   1.0000
     1.0000   1.0000   1.0000   1.0000   1.0000   1.0000   1.0000   1.0000
     1.0000   1.0000   1.0000   1.0000   1.0000   1.0000   1.0000   1.0000
     1.0000   1.0000   1.0000   1.0000   1.0000   1.0000   1.0000   1.0000
     1.0000   1.0000   1.0000   1.0000   1.0000   1.0000   1.0000   1.0000
     1.0000   1.0000   1.0000   1.0000   1.0000   1.0000   1.0000   1.0000
     1.0000   1.0000   1.0000   1.0000   1.0000   1.0000   1.0000   1.0000
     1.0000   1.0000   1.0000   1.0000   1.0000   1.0000   1.0000   1.0000
     1.0000   1.0000   1.0000   1.0000   1.0000   1.0000   1.0000   1.0000
     1.0000   1.0000   1.0000   1.0000   1.0000   1.0000   1.0000   1.0000
     1.0000   1.0000   1.0000   1.0000   1.0000   1.0000   1.0000   1.0000
     1.0000   1.0000   1.0000   1.0000   1.0000   1.0000   1.0000   1.0000
     1.0000   1.0000   1.0000   1.0000   1.0000   1.0000   1.0000   1.0000
     1.0000   1.0000   1.0000   1.0000   0.0000   0.0000   0.0000   0.0000
     0.0000   0.0000   0.0000   0.0000   0.0000   0.0000   0.0000   0.0000
     0.0000   0.0000

          k = 0.0000 0.2271 0.6661 ( 34677 PWs)   bands (ev):

   -80.2238 -80.2235 -80.2224 -80.2219 -47.1010 -47.1004 -47.0994 -47.0989
   -46.2073 -46.2070 -46.2059 -46.2053 -45.5420 -45.5415 -45.5404 -45.5399
   -42.3026 -42.3025 -42.2950 -42.2949 -14.7910 -14.7632 -14.5032 -14.4819
   -14.3705 -14.3584 -14.3327 -14.3305 -14.2923 -14.2917 -14.2499 -14.2492
   -14.1025 -14.0701 -13.8694 -13.8318 -11.7055 -11.6156 -11.5478 -11.5151
   -11.4747 -11.4639 -11.4389 -11.3688 -11.3515 -11.3435 -11.3218 -11.2804
    -1.2836  -0.9715  -0.9663  -0.8492   0.4694   0.6836   0.7755   0.7901
     0.8908   0.9562   1.1339   1.1523   1.2929   1.3573   1.3785   1.5017
     2.4062   2.5779   2.7022   2.8064   2.8465   2.9616   2.9787   3.1809
     3.2514   3.3152   3.4048   3.4864   3.7028   3.7117   3.8833   3.9144
     4.0144   4.0679   4.2450   4.4402   4.6557   4.7797   4.7925   4.8306
     4.9062   5.0417   5.0430   5.2839   5.4326   5.6124   5.7016   5.8804
     6.1318   6.1738   6.3179   6.4297   6.4602   6.5556   6.6137   6.6832
     7.0391   7.1831   7.4306   7.4983   7.5065   7.5068   7.5835   7.5912
     7.7329   7.9715   8.2024   8.2491  12.5705  13.7697  13.7951  14.3742
    14.7139  14.7384  14.9898  15.5073  15.5293  15.7492  15.7904  15.9778
    16.0554  16.4869

     occupation numbers 
     1.0000   1.0000   1.0000   1.0000   1.0000   1.0000   1.0000   1.0000
     1.0000   1.0000   1.0000   1.0000   1.0000   1.0000   1.0000   1.0000
     1.0000   1.0000   1.0000   1.0000   1.0000   1.0000   1.0000   1.0000
     1.0000   1.0000   1.0000   1.0000   1.0000   1.0000   1.0000   1.0000
     1.0000   1.0000   1.0000   1.0000   1.0000   1.0000   1.0000   1.0000
     1.0000   1.0000   1.0000   1.0000   1.0000   1.0000   1.0000   1.0000
     1.0000   1.0000   1.0000   1.0000   1.0000   1.0000   1.0000   1.0000
     1.0000   1.0000   1.0000   1.0000   1.0000   1.0000   1.0000   1.0000
     1.0000   1.0000   1.0000   1.0000   1.0000   1.0000   1.0000   1.0000
     1.0000   1.0000   1.0000   1.0000   1.0000   1.0000   1.0000   1.0000
     1.0000   1.0000   1.0000   1.0000   1.0000   1.0000   1.0000   1.0000
     1.0000   1.0000   1.0000   1.0000   1.0000   1.0000   1.0000   1.0000
     1.0000   1.0000   1.0000   1.0000   1.0000   1.0000   1.0000   1.0000
     1.0000   1.0000   1.0000   1.0000   1.0000   1.0000   1.0000   1.0000
     1.0000   1.0000   1.0000   1.0000   0.0000   0.0000   0.0000   0.0000
     0.0000   0.0000   0.0000   0.0000   0.0000   0.0000   0.0000   0.0000
     0.0000   0.0000

          k = 0.0000 0.2271 0.8882 ( 34672 PWs)   bands (ev):

   -80.2238 -80.2235 -80.2224 -80.2219 -47.1009 -47.1005 -47.0994 -47.0990
   -46.2073 -46.2070 -46.2059 -46.2053 -45.5419 -45.5415 -45.5404 -45.5399
   -42.3026 -42.3025 -42.2950 -42.2949 -14.7997 -14.7893 -14.4431 -14.4395
   -14.3753 -14.3676 -14.3331 -14.3310 -14.2969 -14.2957 -14.2529 -14.2524
   -14.1022 -14.0941 -13.8430 -13.8266 -11.6893 -11.6584 -11.5732 -11.5579
   -11.4657 -11.4648 -11.4071 -11.3755 -11.3550 -11.3382 -11.3278 -11.3066
    -1.1557  -1.0372  -0.9457  -0.9055   0.7160   0.7928   0.8317   0.8670
     0.9825   0.9865   1.0308   1.0630   1.3353   1.4041   1.5094   1.5131
     2.3967   2.5218   2.6135   2.7056   2.7290   2.7861   3.0004   3.0354
     3.2567   3.2710   3.3421   3.3519   3.6569   3.6640   3.9083   3.9162
     4.0839   4.1007   4.1745   4.2909   4.7379   4.7916   4.8534   4.8681
     5.0108   5.1017   5.1968   5.2759   5.4215   5.5102   5.7796   5.8426
     6.1609   6.1823   6.3500   6.3905   6.4190   6.4721   6.6387   6.6654
     7.1771   7.2779   7.3195   7.3893   7.5065   7.5118   7.6031   7.6066
     7.8267   7.9023   8.2135   8.2326  13.0944  13.5313  13.9714  14.2088
    14.8149  14.8855  15.0886  15.3047  15.4721  15.7031  15.7246  15.8303
    16.0011  16.2025

     occupation numbers 
     1.0000   1.0000   1.0000   1.0000   1.0000   1.0000   1.0000   1.0000
     1.0000   1.0000   1.0000   1.0000   1.0000   1.0000   1.0000   1.0000
     1.0000   1.0000   1.0000   1.0000   1.0000   1.0000   1.0000   1.0000
     1.0000   1.0000   1.0000   1.0000   1.0000   1.0000   1.0000   1.0000
     1.0000   1.0000   1.0000   1.0000   1.0000   1.0000   1.0000   1.0000
     1.0000   1.0000   1.0000   1.0000   1.0000   1.0000   1.0000   1.0000
     1.0000   1.0000   1.0000   1.0000   1.0000   1.0000   1.0000   1.0000
     1.0000   1.0000   1.0000   1.0000   1.0000   1.0000   1.0000   1.0000
     1.0000   1.0000   1.0000   1.0000   1.0000   1.0000   1.0000   1.0000
     1.0000   1.0000   1.0000   1.0000   1.0000   1.0000   1.0000   1.0000
     1.0000   1.0000   1.0000   1.0000   1.0000   1.0000   1.0000   1.0000
     1.0000   1.0000   1.0000   1.0000   1.0000   1.0000   1.0000   1.0000
     1.0000   1.0000   1.0000   1.0000   1.0000   1.0000   1.0000   1.0000
     1.0000   1.0000   1.0000   1.0000   1.0000   1.0000   1.0000   1.0000
     1.0000   1.0000   1.0000   1.0000   0.0000   0.0000   0.0000   0.0000
     0.0000   0.0000   0.0000   0.0000   0.0000   0.0000   0.0000   0.0000
     0.0000   0.0000

          k = 0.0000 0.4542 0.0000 ( 34657 PWs)   bands (ev):

   -80.2238 -80.2235 -80.2224 -80.2219 -47.1010 -47.1004 -47.0995 -47.0989
   -46.2073 -46.2070 -46.2059 -46.2053 -45.5420 -45.5414 -45.5405 -45.5399
   -42.3015 -42.3014 -42.2961 -42.2960 -14.7344 -14.7179 -14.5791 -14.5141
   -14.3683 -14.3632 -14.3233 -14.3200 -14.3193 -14.3181 -14.2632 -14.2629
   -14.1594 -14.0891 -13.8545 -13.8411 -11.7095 -11.6077 -11.5205 -11.5051
   -11.4565 -11.4247 -11.3643 -11.3628 -11.3340 -11.3132 -11.2747 -11.2714
    -1.4023  -1.0268  -0.9288  -0.8117   0.0382   0.4505   0.5094   0.5166
     0.8593   0.9194   1.0369   1.1775   1.3113   1.4312   1.4588   1.5353
     2.5312   2.6467   2.6735   2.9604   3.0447   3.0641   3.1060   3.2671
     3.4141   3.5345   3.5655   3.7257   3.7436   3.7830   3.9854   4.0589
     4.1384   4.1963   4.2364   4.2859   4.4709   4.5705   4.6665   4.8266
     4.8346   4.9522   4.9685   5.2185   5.3315   5.3942   5.6936   5.7728
     6.1250   6.2394   6.2404   6.3508   6.5474   6.7128   6.7914   6.8512
     6.9305   7.0104   7.3120   7.3612   7.4396   7.5184   7.5423   7.5564
     7.7587   8.2632   8.2729   8.2978  11.9565  13.6959  13.7377  13.9309
    14.6989  15.0088  15.0603  15.7737  15.9576  16.1406  16.3651  16.3889
    16.5413  16.6619

     occupation numbers 
     1.0000   1.0000   1.0000   1.0000   1.0000   1.0000   1.0000   1.0000
     1.0000   1.0000   1.0000   1.0000   1.0000   1.0000   1.0000   1.0000
     1.0000   1.0000   1.0000   1.0000   1.0000   1.0000   1.0000   1.0000
     1.0000   1.0000   1.0000   1.0000   1.0000   1.0000   1.0000   1.0000
     1.0000   1.0000   1.0000   1.0000   1.0000   1.0000   1.0000   1.0000
     1.0000   1.0000   1.0000   1.0000   1.0000   1.0000   1.0000   1.0000
     1.0000   1.0000   1.0000   1.0000   1.0000   1.0000   1.0000   1.0000
     1.0000   1.0000   1.0000   1.0000   1.0000   1.0000   1.0000   1.0000
     1.0000   1.0000   1.0000   1.0000   1.0000   1.0000   1.0000   1.0000
     1.0000   1.0000   1.0000   1.0000   1.0000   1.0000   1.0000   1.0000
     1.0000   1.0000   1.0000   1.0000   1.0000   1.0000   1.0000   1.0000
     1.0000   1.0000   1.0000   1.0000   1.0000   1.0000   1.0000   1.0000
     1.0000   1.0000   1.0000   1.0000   1.0000   1.0000   1.0000   1.0000
     1.0000   1.0000   1.0000   1.0000   1.0000   1.0000   1.0000   1.0000
     1.0000   1.0000   1.0000   1.0000   0.0000   0.0000   0.0000   0.0000
     0.0000   0.0000   0.0000   0.0000   0.0000   0.0000   0.0000   0.0000
     0.0000   0.0000

          k = 0.0000 0.4542 0.2220 ( 34661 PWs)   bands (ev):

   -80.2238 -80.2235 -80.2224 -80.2219 -47.1010 -47.1004 -47.0995 -47.0989
   -46.2073 -46.2070 -46.2059 -46.2053 -45.5420 -45.5414 -45.5405 -45.5399
   -42.3015 -42.3014 -42.2961 -42.2960 -14.7323 -14.7133 -14.5823 -14.5263
   -14.3681 -14.3633 -14.3268 -14.3236 -14.3151 -14.3138 -14.2641 -14.2636
   -14.1353 -14.0679 -13.8622 -13.8480 -11.7085 -11.6023 -11.5167 -11.5162
   -11.4624 -11.4344 -11.3849 -11.3605 -11.3442 -11.3139 -11.2807 -11.2669
    -1.3778  -1.0144  -0.9282  -0.8044   0.0944   0.4879   0.5387   0.5740
     0.8814   0.9122   1.0667   1.1852   1.2922   1.4125   1.4243   1.5257
     2.5320   2.6129   2.6698   2.9180   3.0009   3.0042   3.1210   3.2858
     3.3278   3.5516   3.6040   3.7112   3.7203   3.7469   3.9584   4.0629
     4.1141   4.2305   4.2408   4.2474   4.5303   4.5915   4.6779   4.8320
     4.8635   4.9276   4.9764   5.2268   5.3512   5.3851   5.6798   5.7685
     6.1162   6.1995   6.2873   6.3580   6.5544   6.7019   6.7828   6.8339
     6.9091   7.0195   7.3066   7.3586   7.4615   7.5313   7.5368   7.5558
     7.7756   8.2230   8.2945   8.2974  12.0867  13.7487  13.7739  14.0410
    14.7039  14.8867  15.2713  15.4239  16.0384  16.0983  16.2498  16.3823
    16.5485  16.5534

     occupation numbers 
     1.0000   1.0000   1.0000   1.0000   1.0000   1.0000   1.0000   1.0000
     1.0000   1.0000   1.0000   1.0000   1.0000   1.0000   1.0000   1.0000
     1.0000   1.0000   1.0000   1.0000   1.0000   1.0000   1.0000   1.0000
     1.0000   1.0000   1.0000   1.0000   1.0000   1.0000   1.0000   1.0000
     1.0000   1.0000   1.0000   1.0000   1.0000   1.0000   1.0000   1.0000
     1.0000   1.0000   1.0000   1.0000   1.0000   1.0000   1.0000   1.0000
     1.0000   1.0000   1.0000   1.0000   1.0000   1.0000   1.0000   1.0000
     1.0000   1.0000   1.0000   1.0000   1.0000   1.0000   1.0000   1.0000
     1.0000   1.0000   1.0000   1.0000   1.0000   1.0000   1.0000   1.0000
     1.0000   1.0000   1.0000   1.0000   1.0000   1.0000   1.0000   1.0000
     1.0000   1.0000   1.0000   1.0000   1.0000   1.0000   1.0000   1.0000
     1.0000   1.0000   1.0000   1.0000   1.0000   1.0000   1.0000   1.0000
     1.0000   1.0000   1.0000   1.0000   1.0000   1.0000   1.0000   1.0000
     1.0000   1.0000   1.0000   1.0000   1.0000   1.0000   1.0000   1.0000
     1.0000   1.0000   1.0000   1.0000   0.0000   0.0000   0.0000   0.0000
     0.0000   0.0000   0.0000   0.0000   0.0000   0.0000   0.0000   0.0000
     0.0000   0.0000

          k = 0.0000 0.4542 0.4441 ( 34644 PWs)   bands (ev):

   -80.2238 -80.2235 -80.2224 -80.2219 -47.1010 -47.1004 -47.0994 -47.0989
   -46.2073 -46.2070 -46.2059 -46.2053 -45.5420 -45.5415 -45.5404 -45.5399
   -42.3015 -42.3014 -42.2961 -42.2960 -14.7348 -14.7103 -14.5718 -14.5376
   -14.3705 -14.3666 -14.3295 -14.3251 -14.3119 -14.3113 -14.2680 -14.2666
   -14.0793 -14.0263 -13.8787 -13.8605 -11.7039 -11.5943 -11.5388 -11.5071
   -11.4765 -11.4636 -11.4433 -11.3613 -11.3449 -11.3161 -11.2957 -11.2662
    -1.3087  -0.9865  -0.9261  -0.8076   0.2698   0.6036   0.6103   0.7079
     0.9123   0.9311   1.1499   1.2288   1.2406   1.3400   1.3718   1.4891
     2.4935   2.5710   2.6576   2.8217   2.8705   2.9006   3.1273   3.2833
     3.2863   3.4867   3.5052   3.6254   3.7153   3.7594   3.8941   3.9777
     4.0588   4.1930   4.1941   4.3962   4.6223   4.6632   4.7047   4.8594
     4.8933   4.9309   5.0026   5.2688   5.3580   5.4102   5.6398   5.7534
     6.1037   6.1812   6.3295   6.3767   6.5721   6.6610   6.7563   6.8098
     6.8780   7.0439   7.2802   7.3351   7.4997   7.5119   7.5639   7.5729
     7.8282   8.1669   8.2891   8.3131  12.4368  13.8615  13.8742  14.3405
    14.7081  14.8653  15.0575  15.5429  15.8655  15.8971  16.0736  16.1513
    16.3152  16.4792

     occupation numbers 
     1.0000   1.0000   1.0000   1.0000   1.0000   1.0000   1.0000   1.0000
     1.0000   1.0000   1.0000   1.0000   1.0000   1.0000   1.0000   1.0000
     1.0000   1.0000   1.0000   1.0000   1.0000   1.0000   1.0000   1.0000
[...]
     atom    1 type  2   force =     0.00000000    0.00000000    0.00000000
     atom    2 type  2   force =     0.00000000    0.00000000    0.00000000
     atom    3 type  2   force =     0.00000000    0.00000000    0.00000000
     atom    4 type  2   force =     0.00000000    0.00000000    0.00000000
     atom    5 type  1   force =    -0.05614535    0.00000000    0.02965727
     atom    6 type  1   force =     0.05612794    0.00000000    0.02965900
     atom    7 type  1   force =     0.05614535    0.00000000   -0.02965727
     atom    8 type  1   force =    -0.05612794    0.00000000   -0.02965900
     atom    9 type  4   force =     0.07905728    0.00000000    0.06183947
     atom   10 type  4   force =    -0.07895832    0.00000000    0.06176327
     atom   11 type  4   force =    -0.07905728    0.00000000   -0.06183947
     atom   12 type  4   force =     0.07895832    0.00000000   -0.06176327
     atom   13 type  3   force =     0.18479414    0.00000000   -1.43352314
     atom   14 type  3   force =    -0.18478372    0.00000000   -1.43353314
     atom   15 type  3   force =    -0.18479414    0.00000000    1.43352314
     atom   16 type  3   force =     0.18478372    0.00000000    1.43353314
     atom   17 type  3   force =     1.12237589    0.00000000   -0.74390812
     atom   18 type  3   force =    -1.12236297    0.00000000   -0.74395194
     atom   19 type  3   force =    -1.12237589    0.00000000    0.74390812
     atom   20 type  3   force =     1.12236297    0.00000000    0.74395194
     atom   21 type  3   force =    -0.58773784   -1.05538191    0.71292601
     atom   22 type  3   force =     0.58777568    1.05539515    0.71291287
     atom   23 type  3   force =     0.58773784   -1.05538191   -0.71292601
     atom   24 type  3   force =    -0.58777568    1.05539515   -0.71291287
     atom   25 type  3   force =     0.58773784    1.05538191   -0.71292601
     atom   26 type  3   force =    -0.58777568   -1.05539515   -0.71291287
     atom   27 type  3   force =    -0.58773784    1.05538191    0.71292601
     atom   28 type  3   force =     0.58777568   -1.05539515    0.71291287
     The ionic contribution  to forces
     atom    1 type  2   force =     0.00042637   -0.00006993    0.00023605
     atom    2 type  2   force =    -0.00024850    0.00020624    0.00004813
     atom    3 type  2   force =     0.00055840    0.00020064    0.00029443
     atom    4 type  2   force =    -0.00011647   -0.00007554   -0.00001025
     atom    5 type  1   force =     2.78079141   -0.00080870   -1.78161985
     atom    6 type  1   force =    -2.77887986    0.00078494   -1.78120856
     atom    7 type  1   force =    -2.78122479    0.00078494    1.78170889
     atom    8 type  1   force =     2.77904758   -0.00080870    1.78101816
     atom    9 type  4   force =     0.13044535   -0.00019376    2.46634452
     atom   10 type  4   force =    -0.12943806    0.00018051    2.46565191
     atom   11 type  4   force =    -0.13033582    0.00018051   -2.46642756
     atom   12 type  4   force =     0.12930002   -0.00019376   -2.46561253
     atom   13 type  3   force =    -4.00637048   -0.00026852    0.83289885
     atom   14 type  3   force =     4.00710529    0.00020609    0.83344024
     atom   15 type  3   force =     4.00661679    0.00020609   -0.83287939
     atom   16 type  3   force =    -4.00725225   -0.00026852   -0.83341355
     atom   17 type  3   force =    -1.60473316   -0.00025557    3.60362699
     atom   18 type  3   force =     1.60602033    0.00019715    3.60376615
     atom   19 type  3   force =     1.60452676    0.00019715   -3.60369228
     atom   20 type  3   force =    -1.60573473   -0.00025557   -3.60370695
     atom   21 type  3   force =     1.00978042    2.76008147   -1.14760485
     atom   22 type  3   force =    -1.00917176   -2.75983184   -1.14788545
     atom   23 type  3   force =    -1.00999790    2.76045841    1.14715964
     atom   24 type  3   force =     1.00913715   -2.76035947    1.14767646
     atom   25 type  3   force =    -1.00988838   -2.76000829    1.14737771
     atom   26 type  3   force =     1.00904261    2.75993651    1.14788088
     atom   27 type  3   force =     1.00987496   -2.76050444   -1.14740042
     atom   28 type  3   force =    -1.00928128    2.76028196   -1.14766738
     The local contribution  to forces
     atom    1 type  2   force =     0.00000000    0.00000000    0.00000000
     atom    2 type  2   force =    -0.00454710   -0.00016846   -0.00226297
     atom    3 type  2   force =     0.00009013   -0.00189870    0.00003892
     atom    4 type  2   force =    -0.00445698   -0.00173024   -0.00230189
     atom    5 type  1   force =    -2.74207529   -0.00892352    1.73903586
     atom    6 type  1   force =     2.72086260   -0.00223088    1.73825386
     atom    7 type  1   force =     2.72125776   -0.00223088   -1.74955145
     atom    8 type  1   force =    -2.73844498   -0.00892351   -1.74923789
     atom    9 type  4   force =    -0.13312317   -0.00001950   -2.45056204
     atom   10 type  4   force =     0.13214379   -0.00000488   -2.44981101
     atom   11 type  4   force =     0.13313453   -0.00000488    2.45065735
     atom   12 type  4   force =    -0.13212323   -0.00001948    2.44992481
     atom   13 type  3   force =     3.81150892   -0.00206788    0.60133951
     atom   14 type  3   force =    -3.81673466   -0.00051697    0.60053558
     atom   15 type  3   force =    -3.81586593   -0.00051697   -0.60344646
     atom   16 type  3   force =     3.81200345   -0.00206790   -0.60328349
     atom   17 type  3   force =     0.32238944   -0.00212162   -2.81993740
     atom   18 type  3   force =    -0.32736109   -0.00053041   -2.82021862
     atom   19 type  3   force =    -0.32608097   -0.00053041    2.81778054
     atom   20 type  3   force =     0.32338378   -0.00212164    2.81749070
     atom   21 type  3   force =    -0.37262425   -1.64432044    0.41954552
     atom   22 type  3   force =     0.36715825    1.64224020    0.41992653
     atom   23 type  3   force =     0.36778057   -1.64344297   -0.42193258
     atom   24 type  3   force =    -0.37201898    1.64085030   -0.42202561
     atom   25 type  3   force =     0.36783429    1.64258042   -0.42186549
     atom   26 type  3   force =    -0.37180411   -1.64430048   -0.42229402
     atom   27 type  3   force =    -0.37283913    1.64087028    0.41927710
     atom   28 type  3   force =     0.36710453   -1.64310274    0.41999363
     The core correction contribution to forces
     atom    1 type  2   force =     0.00000000    0.00000000    0.00000000
     atom    2 type  2   force =     0.00000000    0.00000000    0.00000000
     atom    3 type  2   force =     0.00000000    0.00000000    0.00000000
     atom    4 type  2   force =     0.00000000    0.00000000    0.00000000
     atom    5 type  1   force =     0.00488707    0.00026889   -0.00078232
     atom    6 type  1   force =    -0.00421159    0.00006723   -0.00079819
     atom    7 type  1   force =    -0.00414265    0.00006723    0.00118946
     atom    8 type  1   force =     0.00481631    0.00026889    0.00117408
     atom    9 type  4   force =    -0.00755448    0.00000605   -0.00835357
     atom   10 type  4   force =     0.00756267    0.00000151   -0.00834724
     atom   11 type  4   force =     0.00757144    0.00000151    0.00836259
     atom   12 type  4   force =    -0.00754655    0.00000605    0.00835460
     atom   13 type  3   force =    -0.00224433   -0.00000111    0.01204471
     atom   14 type  3   force =     0.00224059   -0.00000028    0.01204462
     atom   15 type  3   force =     0.00224042   -0.00000028   -0.01204931
     atom   16 type  3   force =    -0.00224387   -0.00000111   -0.01204814
     atom   17 type  3   force =    -0.00701262   -0.00000126    0.00631443
     atom   18 type  3   force =     0.00700545   -0.00000031    0.00631374
     atom   19 type  3   force =     0.00700744   -0.00000031   -0.00631591
     atom   20 type  3   force =    -0.00701118   -0.00000126   -0.00631633
     atom   21 type  3   force =     0.00427910    0.00807745   -0.00610502
     atom   22 type  3   force =    -0.00428291   -0.00808133   -0.00610618
     atom   23 type  3   force =    -0.00428172    0.00807970    0.00610396
     atom   24 type  3   force =     0.00427962   -0.00808221    0.00610291
     atom   25 type  3   force =    -0.00428186   -0.00808091    0.00610406
     atom   26 type  3   force =     0.00427904    0.00807737    0.00610249
     atom   27 type  3   force =     0.00427968   -0.00808229   -0.00610543
     atom   28 type  3   force =    -0.00428277    0.00808012   -0.00610607
     The Hubbard contrib.    to forces
     atom    1 type  2   force =     0.00000000    0.00000000    0.00000000
     atom    2 type  2   force =     0.00000000    0.00000000    0.00000000
     atom    3 type  2   force =     0.00000000    0.00000000    0.00000000
     atom    4 type  2   force =     0.00000000    0.00000000    0.00000000
     atom    5 type  1   force =     0.00000000    0.00000000    0.00000000
     atom    6 type  1   force =     0.00000000    0.00000000    0.00000000
     atom    7 type  1   force =     0.00000000    0.00000000    0.00000000
     atom    8 type  1   force =     0.00000000    0.00000000    0.00000000
     atom    9 type  4   force =     0.00000000    0.00000000    0.00000000
     atom   10 type  4   force =     0.00000000    0.00000000    0.00000000
     atom   11 type  4   force =     0.00000000    0.00000000    0.00000000
     atom   12 type  4   force =     0.00000000    0.00000000    0.00000000
     atom   13 type  3   force =     0.00000000    0.00000000    0.00000000
     atom   14 type  3   force =     0.00000000    0.00000000    0.00000000
     atom   15 type  3   force =     0.00000000    0.00000000    0.00000000
     atom   16 type  3   force =     0.00000000    0.00000000    0.00000000
     atom   17 type  3   force =     0.00000000    0.00000000    0.00000000
     atom   18 type  3   force =     0.00000000    0.00000000    0.00000000
     atom   19 type  3   force =     0.00000000    0.00000000    0.00000000
     atom   20 type  3   force =     0.00000000    0.00000000    0.00000000
     atom   21 type  3   force =     0.00000000    0.00000000    0.00000000
     atom   22 type  3   force =     0.00000000    0.00000000    0.00000000
     atom   23 type  3   force =     0.00000000    0.00000000    0.00000000
     atom   24 type  3   force =     0.00000000    0.00000000    0.00000000
     atom   25 type  3   force =     0.00000000    0.00000000    0.00000000
     atom   26 type  3   force =     0.00000000    0.00000000    0.00000000
     atom   27 type  3   force =     0.00000000    0.00000000    0.00000000
     atom   28 type  3   force =     0.00000000    0.00000000    0.00000000
     The SCF correction term to forces
     atom    1 type  2   force =    -0.00000000    0.00000000   -0.00000000
     atom    2 type  2   force =     0.00000000   -0.00000000    0.00000000
     atom    3 type  2   force =    -0.00000000    0.00000000   -0.00000000
     atom    4 type  2   force =     0.00000000    0.00000000    0.00000000
     atom    5 type  1   force =    -0.00000408    0.00000001    0.00000006
     atom    6 type  1   force =    -0.00000488   -0.00000000   -0.00000087
     atom    7 type  1   force =     0.00000410    0.00000000   -0.00000005
     atom    8 type  1   force =     0.00000488   -0.00000000    0.00000087
     atom    9 type  4   force =    -0.00000305    0.00000000    0.00000055
     atom   10 type  4   force =    -0.00000289   -0.00000000   -0.00000089
     atom   11 type  4   force =     0.00000305   -0.00000000   -0.00000055
     atom   12 type  4   force =     0.00000289    0.00000000    0.00000089
     atom   13 type  3   force =    -0.00000578    0.00000000   -0.00000278
     atom   14 type  3   force =    -0.00000587   -0.00000000    0.00000279
     atom   15 type  3   force =     0.00000578    0.00000000    0.00000278
     atom   16 type  3   force =     0.00000587    0.00000000   -0.00000279
     atom   17 type  3   force =     0.00000543    0.00000000    0.00000204
     atom   18 type  3   force =     0.00000461   -0.00000000   -0.00000214
     atom   19 type  3   force =    -0.00000543   -0.00000000   -0.00000204
     atom   20 type  3   force =    -0.00000461    0.00000000    0.00000214
     atom   21 type  3   force =    -0.00000308    0.00000619    0.00000366
     atom   22 type  3   force =    -0.00000260    0.00000707   -0.00000361
     atom   23 type  3   force =     0.00000308    0.00000619   -0.00000366
     atom   24 type  3   force =     0.00000260    0.00000707    0.00000361
     atom   25 type  3   force =     0.00000308   -0.00000619   -0.00000366
     atom   26 type  3   force =     0.00000260   -0.00000707    0.00000361
     atom   27 type  3   force =    -0.00000308   -0.00000619    0.00000366
     atom   28 type  3   force =    -0.00000260   -0.00000707   -0.00000361

     Total force =     0.474620     Total SCF correction =     0.000030


     Computing stress (Cartesian axis) and pressure


     negative rho (up, down):  0.000E+00 4.754E-04
          total   stress  (Ry/bohr**3)                   (kbar)     P=      171.46
   0.00179519   0.00000000   0.00000008          264.08        0.00        0.01
   0.00000000   0.00097888   0.00000000            0.00      144.00        0.00
   0.00000008   0.00000000   0.00072253            0.01        0.00      106.29

     kinetic stress (kbar)  34284.52      0.00      0.00
                                0.00  34048.77      0.00
                                0.00      0.00  34097.37

     local   stress (kbar)  -5340.40     -0.10      0.03
                               -0.10  -3436.74     -0.00
                                0.03     -0.00  -1305.11

     nonloc. stress (kbar) -10237.23      0.00      0.00
                                0.00 -10308.22      0.00
                                0.00      0.00 -10173.03

     hartree stress (kbar)  15892.36     -0.00     -0.03
                               -0.00  15250.82      0.00
                               -0.03      0.00  14040.06

     exc-cor stress (kbar)  -3864.79      0.00      0.00
                                0.00  -3872.30     -0.00
                                0.00     -0.00  -3861.30

     corecor stress (kbar)  -3289.04     -0.00     -0.00
                               -0.00  -3271.74      0.00
                               -0.00      0.00  -3295.51

     ewald   stress (kbar) -27181.34      0.09      0.00
                                0.09 -28266.60      0.00
                                0.00      0.00 -29396.19

     hubbard stress (kbar)      0.00      0.00      0.00
                                0.00      0.00      0.00
                                0.00      0.00      0.00

     DFT-D   stress (kbar)      0.00      0.00      0.00
                                0.00      0.00      0.00
                                0.00      0.00      0.00

     XDM     stress (kbar)      0.00      0.00      0.00
                                0.00      0.00      0.00
                                0.00      0.00      0.00

     dft-nl  stress (kbar)      0.00      0.00      0.00
                                0.00      0.00      0.00
                                0.00      0.00      0.00

     TS-vdW  stress (kbar)      0.00      0.00      0.00
                                0.00      0.00      0.00
                                0.00      0.00      0.00



     init_run     :   1167.58s CPU   1539.75s WALL (       1 calls)
     electrons    : 124556.27s CPU 163137.07s WALL (       1 calls)
     forces       :    174.87s CPU    232.53s WALL (       1 calls)
     stress       :    562.04s CPU    735.40s WALL (       1 calls)

     Called by init_run:
     wfcinit      :   1152.65s CPU   1508.50s WALL (       1 calls)
     wfcinit:atom :      0.99s CPU      1.49s WALL (     184 calls)
     wfcinit:wfcr :   1146.34s CPU   1499.35s WALL (     184 calls)
     potinit      :      6.08s CPU     12.25s WALL (       1 calls)
     hinit0       :      6.30s CPU     13.20s WALL (       1 calls)

     Called by electrons:
     c_bands      : 106471.87s CPU 139500.40s WALL (      36 calls)
     sum_band     :  17840.86s CPU  23300.70s WALL (      36 calls)
     v_of_rho     :     70.96s CPU     95.64s WALL (      37 calls)
     v_h          :      5.17s CPU      6.66s WALL (      37 calls)
     v_xc         :     69.48s CPU     93.80s WALL (      39 calls)
     newd         :     77.77s CPU    117.25s WALL (      37 calls)
     PAW_pot      :     33.13s CPU     44.85s WALL (      37 calls)
     mix_rho      :     45.95s CPU     61.41s WALL (      36 calls)

     Called by c_bands:
     init_us_2    :    107.88s CPU    141.13s WALL (   13800 calls)
     cegterg      : 105715.60s CPU 138486.82s WALL (    6624 calls)

     Called by sum_band:
     sum_band:wei :      0.38s CPU      0.59s WALL (      36 calls)
     sum_band:loo :  17643.08s CPU  23014.10s WALL (      36 calls)
     sum_band:buf :     30.69s CPU     34.38s WALL (    6624 calls)
     sum_band:ini :     44.59s CPU     60.85s WALL (    6624 calls)
     sum_band:cal :   1393.45s CPU   1802.38s WALL (    6624 calls)
     sum_band:bec :      4.84s CPU      5.42s WALL (    6624 calls)
     addusdens    :    168.43s CPU    250.51s WALL (      36 calls)
     addusd:skk   :      0.98s CPU      1.26s WALL (     108 calls)
     addusd:dgemm :     50.88s CPU     90.50s WALL (     216 calls)
     addusd:qvan2 :    112.67s CPU    153.26s WALL (     216 calls)

     Called by *egterg:
     cdiaghg      :   3018.15s CPU   4039.26s WALL (   29649 calls)
     cegterg:over :   5058.70s CPU   6500.62s WALL (   23025 calls)
     cegterg:upda :   1150.60s CPU   1536.87s WALL (   23025 calls)
     cegterg:last :   2707.69s CPU   3629.20s WALL (   13909 calls)
     h_psi        :  88940.74s CPU 116572.24s WALL (   29833 calls)
     s_psi        :   2140.22s CPU   2858.29s WALL (   29833 calls)
     g_psi        :     16.21s CPU     22.04s WALL (   23025 calls)

     Called by h_psi:
     h_psi:calbec :   4118.83s CPU   5340.05s WALL (   29833 calls)
     vloc_psi     :  82583.45s CPU 108162.68s WALL (   29833 calls)
     add_vuspsi   :   2187.41s CPU   2999.91s WALL (   29833 calls)

     General routines
     calbec       :   5743.68s CPU   7448.24s WALL (   37377 calls)
     fft          :     82.35s CPU    109.86s WALL (     963 calls)
     ffts         :     10.65s CPU     13.84s WALL (     146 calls)
     fftw         :  98403.06s CPU 128920.63s WALL ( 5272802 calls)
     interpolate  :     12.02s CPU     15.14s WALL (      74 calls)

     Parallel routines
     fft_scatt_xy :    486.28s CPU    510.65s WALL ( 5273911 calls)
     fft_scatt_yz :  95802.69s CPU 126238.14s WALL ( 5273911 calls)

     PAW routines
     PAW_pot      :     33.13s CPU     44.85s WALL (      37 calls)
     PAW_symme    :      2.98s CPU      3.96s WALL (      73 calls)

     PWSCF        :   1d11h 7m CPU   1d22h 0m WALL


   This run was terminated on:  11:37:58  31Jan2023            

=------------------------------------------------------------------------------=
   JOB DONE.
=------------------------------------------------------------------------------=
Note: The following floating-point exceptions are signalling: IEEE_UNDERFLOW_FLAG IEEE_DENORMAL
Note: The following floating-point exceptions are signalling: IEEE_DENORMAL
Note: The following floating-point exceptions are signalling: IEEE_INVALID_FLAG IEEE_DENORMAL
Note: The following floating-point exceptions are signalling: IEEE_DENORMAL
Note: The following floating-point exceptions are signalling: IEEE_DENORMAL
Note: The following floating-point exceptions are signalling: IEEE_DENORMAL
Note: The following floating-point exceptions are signalling: IEEE_DENORMAL
Note: The following floating-point exceptions are signalling: IEEE_DENORMAL
