
     Program PWSCF v.6.7MaX starts on 31Jan2023 at  1:33:39 

     This program is part of the open-source Quantum ESPRESSO suite
     for quantum simulation of materials; please cite
         "P. Giannozzi et al., J. Phys.:Condens. Matter 21 395502 (2009);
         "P. Giannozzi et al., J. Phys.:Condens. Matter 29 465901 (2017);
          URL http://www.quantum-espresso.org", 
     in publications or presentations arising from this work. More details at
     http://www.quantum-espresso.org/quote

     Parallel version (MPI), running on    12 processors

     MPI processes distributed on     1 nodes
     R & G space division:  proc/nbgrp/npool/nimage =      12
     Reading input from scale_1da-04.in

     Current dimensions of program PWSCF are:
     Max number of different atomic species (ntypx) = 10
     Max number of k-points (npk) =  40000
     Max angular momentum in pseudopotentials (lmaxx) =  3
     Message from routine read_pp_mesh:
     mesh size missing, using the one in header
     file Fe.pbe-spn-kjpaw_psl.0.2.1.UPF: wavefunction(s)  3D renormalized
     file O.pbe-n-kjpaw_psl.0.1.UPF: wavefunction(s)  2P renormalized

     Subspace diagonalization in iterative solution of the eigenvalue problem:
     a serial algorithm will be used

     Message from routine setup:
     using ibrav=0 with symmetry is DISCOURAGED, use correct ibrav instead

     Parallelization info
     --------------------
     sticks:   dense  smooth     PW     G-vecs:    dense   smooth      PW
     Min        1710     633    171               111503    25143    3530
     Max        1711     634    173               111505    25145    3531
     Sum       20531    7599   2057              1338043   301725   42371



     bravais-lattice index     =            0
     lattice parameter (alat)  =      20.3206  a.u.
     unit-cell volume          =    2232.3697 (a.u.)^3
     number of atoms/cell      =           28
     number of atomic types    =            4
     number of electrons       =       216.00
     number of Kohn-Sham states=          130
     kinetic-energy cutoff     =     100.0000  Ry
     charge density cutoff     =    1080.0000  Ry
     scf convergence threshold =      2.0E-10
     mixing beta               =       0.4000
     number of iterations used =            8  plain     mixing
     Exchange-correlation= PBE
                           (   1   4   3   4   0   0   0)

     celldm(1)=  20.320559  celldm(2)=   0.000000  celldm(3)=   0.000000
     celldm(4)=   0.000000  celldm(5)=   0.000000  celldm(6)=   0.000000

     crystal axes: (cart. coord. in units of alat)
               a(1) = (   1.000000   0.000000   0.000000 )  
               a(2) = (   0.000000   0.578313   0.000000 )  
               a(3) = (   0.000000   0.000000   0.460041 )  

     reciprocal axes: (cart. coord. in units 2 pi/alat)
               b(1) = (  1.000000  0.000000  0.000000 )  
               b(2) = (  0.000000  1.729168  0.000000 )  
               b(3) = (  0.000000  0.000000  2.173720 )  


     PseudoPot. # 1 for Fe read from file:
     /opt/QEpot/SSSP_precision_pseudos/Fe.pbe-spn-kjpaw_psl.0.2.1.UPF
     MD5 check sum: e86618425769142926afa95317d90200
     Pseudo is Projector augmented-wave + core cor, Zval = 16.0
     Generated using "atomic" code by A. Dal Corso  v.5.0.99 svn rev. 10869
     Shape of augmentation charge: PSQ
     Using radial grid of 1191 points,  6 beta functions with: 
                l(1) =   0
                l(2) =   0
                l(3) =   1
                l(4) =   1
                l(5) =   2
                l(6) =   2
     Q(r) pseudized with 0 coefficients 


     PseudoPot. # 2 for Na read from file:
     /opt/QEpot/SSSP_precision_pseudos/Na_ONCV_PBE-1.0.oncvpsp.upf
     MD5 check sum: 24a298df0a6742ae313db96548fdb2a4
     Pseudo is Norm-conserving, Zval =  9.0
     Generated using ONCVPSP code by D. R. Hamann
     Using radial grid of 1992 points,  4 beta functions with: 
                l(1) =   0
                l(2) =   0
                l(3) =   1
                l(4) =   1

     PseudoPot. # 3 for O  read from file:
     /opt/QEpot/SSSP_precision_pseudos/O.pbe-n-kjpaw_psl.0.1.UPF
     MD5 check sum: 0234752ac141de4415c5fc33072bef88
     Pseudo is Projector augmented-wave + core cor, Zval =  6.0
     Generated using "atomic" code by A. Dal Corso  v.5.0.99 svn rev. 10869
     Shape of augmentation charge: BESSEL
     Using radial grid of 1095 points,  4 beta functions with: 
                l(1) =   0
                l(2) =   0
                l(3) =   1
                l(4) =   1
     Q(r) pseudized with 0 coefficients 


     PseudoPot. # 4 for P  read from file:
     /opt/QEpot/SSSP_precision_pseudos/P.pbe-n-rrkjus_psl.1.0.0.UPF
     MD5 check sum: 8b930f418f0a4573dca56cd030ffe088
     Pseudo is Ultrasoft + core correction, Zval =  5.0
     Generated using "atomic" code by A. Dal Corso  v.5.1
     Using radial grid of 1147 points,  6 beta functions with: 
                l(1) =   0
                l(2) =   0
                l(3) =   1
                l(4) =   1
                l(5) =   2
                l(6) =   2
     Q(r) pseudized with 0 coefficients 


     atomic species   valence    mass     pseudopotential
        Fe            16.00    55.84500     Fe( 1.00)
        Na             9.00    22.98977     Na( 1.00)
        O              6.00    15.99940     O ( 1.00)
        P              5.00    30.97376     P ( 1.00)

     Starting magnetic structure 
     atomic species   magnetization
        Fe           0.312
        Na           0.000
        O            0.000
        P            0.000

      4 Sym. Ops., with inversion, found ( 2 have fractional translation)


                                    s                        frac. trans.

      isym =  1     identity                                     

 cryst.   s( 1) = (     1          0          0      )
                  (     0          1          0      )
                  (     0          0          1      )

 cart.    s( 1) = (  1.0000000  0.0000000  0.0000000 )
                  (  0.0000000  1.0000000  0.0000000 )
                  (  0.0000000  0.0000000  1.0000000 )


      isym =  2     180 deg rotation - cart. axis [0,1,0]        

 cryst.   s( 2) = (    -1          0          0      )    f =(  0.0000000 )
                  (     0          1          0      )       ( -0.4999980 )
                  (     0          0         -1      )       (  0.0000000 )

 cart.    s( 2) = ( -1.0000000  0.0000000  0.0000000 )    f =(  0.0000000 )
                  (  0.0000000  1.0000000  0.0000000 )       ( -0.2891553 )
                  (  0.0000000  0.0000000 -1.0000000 )       (  0.0000000 )


      isym =  3     inversion                                    

 cryst.   s( 3) = (    -1          0          0      )
                  (     0         -1          0      )
                  (     0          0         -1      )

 cart.    s( 3) = ( -1.0000000  0.0000000  0.0000000 )
                  (  0.0000000 -1.0000000  0.0000000 )
                  (  0.0000000  0.0000000 -1.0000000 )


      isym =  4     inv. 180 deg rotation - cart. axis [0,1,0]   

 cryst.   s( 4) = (     1          0          0      )    f =(  0.0000000 )
                  (     0         -1          0      )       (  0.4999980 )
                  (     0          0          1      )       (  0.0000000 )

 cart.    s( 4) = (  1.0000000  0.0000000  0.0000000 )    f =(  0.0000000 )
                  (  0.0000000 -1.0000000  0.0000000 )       (  0.2891553 )
                  (  0.0000000  0.0000000  1.0000000 )       (  0.0000000 )


   Cartesian axes

     site n.     atom                  positions (alat units)
         1           Na  tau(   1) = (   0.0000000   0.0000000   0.0000000  )
         2           Na  tau(   2) = (   0.5000030   0.0000000   0.2300218  )
         3           Na  tau(   3) = (   1.0000000   0.2891576   0.0000000  )
         4           Na  tau(   4) = (   0.5000030   0.2891576   0.2300218  )
         5           Fe  tau(   5) = (   0.2870220   0.4337369   0.4537778  )
         6           Fe  tau(   6) = (   0.2129810   0.1445788   0.2237560  )
         7           Fe  tau(   7) = (   0.7129840   0.1445788   0.0062658  )
         8           Fe  tau(   8) = (   0.7870240   0.4337369   0.2362875  )
         9           P   tau(   9) = (   0.1083410   0.4337369   0.2036200  )
        10           P   tau(  10) = (   0.3916620   0.1445788   0.4336418  )
        11           P   tau(  11) = (   0.8916650   0.1445788   0.2564235  )
        12           P   tau(  12) = (   0.6083440   0.4337369   0.0264017  )
        13           O   tau(  13) = (   0.1140120   0.4337369   0.3461457  )
        14           O   tau(  14) = (   0.3859910   0.1445788   0.1161240  )
        15           O   tau(  15) = (   0.8859940   0.1445788   0.1138983  )
        16           O   tau(  16) = (   0.6140150   0.4337369   0.3439201  )
        17           O   tau(  17) = (   0.4685140   0.4337369   0.0741218  )
        18           O   tau(  18) = (   0.0314890   0.1445788   0.3041436  )
        19           O   tau(  19) = (   0.5314920   0.1445788   0.3859218  )
        20           O   tau(  20) = (   0.9685170   0.4337369   0.1559000  )
        21           O   tau(  21) = (   0.1755910   0.5462841   0.1434472  )
        22           O   tau(  22) = (   0.3244120   0.0320316   0.3734689  )
        23           O   tau(  23) = (   0.8244150   0.2571260   0.3165964  )
        24           O   tau(  24) = (   0.6755940   0.3211897   0.0865746  )
        25           O   tau(  25) = (   0.8244150   0.0320316   0.3165964  )
        26           O   tau(  26) = (   0.6755940   0.5462841   0.0865746  )
        27           O   tau(  27) = (   0.1755910   0.3211897   0.1434472  )
        28           O   tau(  28) = (   0.3244120   0.2571260   0.3734689  )

   Crystallographic axes

     site n.     atom                  positions (cryst. coord.)
         1           Na  tau(   1) = (  0.0000000  0.0000000  0.0000000  )
         2           Na  tau(   2) = (  0.5000030  0.0000000  0.5000030  )
         3           Na  tau(   3) = (  1.0000000  0.5000020  0.0000000  )
         4           Na  tau(   4) = (  0.5000030  0.5000020  0.5000030  )
         5           Fe  tau(   5) = (  0.2870220  0.7500040  0.9863860  )
         6           Fe  tau(   6) = (  0.2129810  0.2500010  0.4863830  )
         7           Fe  tau(   7) = (  0.7129840  0.2500010  0.0136200  )
         8           Fe  tau(   8) = (  0.7870240  0.7500040  0.5136230  )
         9           P   tau(   9) = (  0.1083410  0.7500040  0.4426130  )
        10           P   tau(  10) = (  0.3916620  0.2500010  0.9426160  )
        11           P   tau(  11) = (  0.8916650  0.2500010  0.5573930  )
        12           P   tau(  12) = (  0.6083440  0.7500040  0.0573900  )
        13           O   tau(  13) = (  0.1140120  0.7500040  0.7524240  )
        14           O   tau(  14) = (  0.3859910  0.2500010  0.2524210  )
        15           O   tau(  15) = (  0.8859940  0.2500010  0.2475830  )
        16           O   tau(  16) = (  0.6140150  0.7500040  0.7475860  )
        17           O   tau(  17) = (  0.4685140  0.7500040  0.1611200  )
        18           O   tau(  18) = (  0.0314890  0.2500010  0.6611230  )
        19           O   tau(  19) = (  0.5314920  0.2500010  0.8388860  )
        20           O   tau(  20) = (  0.9685170  0.7500040  0.3388830  )
        21           O   tau(  21) = (  0.1755910  0.9446170  0.3118140  )
        22           O   tau(  22) = (  0.3244120  0.0553880  0.8118170  )
        23           O   tau(  23) = (  0.8244150  0.4446140  0.6881920  )
        24           O   tau(  24) = (  0.6755940  0.5553910  0.1881890  )
        25           O   tau(  25) = (  0.8244150  0.0553880  0.6881920  )
        26           O   tau(  26) = (  0.6755940  0.9446170  0.1881890  )
        27           O   tau(  27) = (  0.1755910  0.5553910  0.3118140  )
        28           O   tau(  28) = (  0.3244120  0.4446140  0.8118170  )

     number of k points=    92  Marzari-Vanderbilt smearing, width (Ry)=  0.0073
                       cart. coord. in units 2pi/alat
        k(    1) = (   0.0000000   0.0000000   0.0000000), wk =   0.0031746
        k(    2) = (   0.0000000   0.0000000   0.2415245), wk =   0.0063492
        k(    3) = (   0.0000000   0.0000000   0.4830489), wk =   0.0063492
        k(    4) = (   0.0000000   0.0000000   0.7245734), wk =   0.0063492
        k(    5) = (   0.0000000   0.0000000   0.9660979), wk =   0.0063492
        k(    6) = (   0.0000000   0.2470240   0.0000000), wk =   0.0063492
        k(    7) = (   0.0000000   0.2470240   0.2415245), wk =   0.0126984
        k(    8) = (   0.0000000   0.2470240   0.4830489), wk =   0.0126984
        k(    9) = (   0.0000000   0.2470240   0.7245734), wk =   0.0126984
        k(   10) = (   0.0000000   0.2470240   0.9660979), wk =   0.0126984
        k(   11) = (   0.0000000   0.4940480   0.0000000), wk =   0.0063492
        k(   12) = (   0.0000000   0.4940480   0.2415245), wk =   0.0126984
        k(   13) = (   0.0000000   0.4940480   0.4830489), wk =   0.0126984
        k(   14) = (   0.0000000   0.4940480   0.7245734), wk =   0.0126984
        k(   15) = (   0.0000000   0.4940480   0.9660979), wk =   0.0126984
        k(   16) = (   0.0000000   0.7410720   0.0000000), wk =   0.0063492
        k(   17) = (   0.0000000   0.7410720   0.2415245), wk =   0.0126984
        k(   18) = (   0.0000000   0.7410720   0.4830489), wk =   0.0126984
        k(   19) = (   0.0000000   0.7410720   0.7245734), wk =   0.0126984
        k(   20) = (   0.0000000   0.7410720   0.9660979), wk =   0.0126984
        k(   21) = (   0.2000000   0.0000000   0.0000000), wk =   0.0063492
        k(   22) = (   0.2000000   0.0000000   0.2415245), wk =   0.0063492
        k(   23) = (   0.2000000   0.0000000   0.4830489), wk =   0.0063492
        k(   24) = (   0.2000000   0.0000000   0.7245734), wk =   0.0063492
        k(   25) = (   0.2000000   0.0000000   0.9660979), wk =   0.0063492
        k(   26) = (   0.2000000   0.2470240   0.0000000), wk =   0.0126984
        k(   27) = (   0.2000000   0.2470240   0.2415245), wk =   0.0126984
        k(   28) = (   0.2000000   0.2470240   0.4830489), wk =   0.0126984
        k(   29) = (   0.2000000   0.2470240   0.7245734), wk =   0.0126984
        k(   30) = (   0.2000000   0.2470240   0.9660979), wk =   0.0126984
        k(   31) = (   0.2000000   0.4940480   0.0000000), wk =   0.0126984
        k(   32) = (   0.2000000   0.4940480   0.2415245), wk =   0.0126984
        k(   33) = (   0.2000000   0.4940480   0.4830489), wk =   0.0126984
        k(   34) = (   0.2000000   0.4940480   0.7245734), wk =   0.0126984
        k(   35) = (   0.2000000   0.4940480   0.9660979), wk =   0.0126984
        k(   36) = (   0.2000000   0.7410720   0.0000000), wk =   0.0126984
        k(   37) = (   0.2000000   0.7410720   0.2415245), wk =   0.0126984
        k(   38) = (   0.2000000   0.7410720   0.4830489), wk =   0.0126984
        k(   39) = (   0.2000000   0.7410720   0.7245734), wk =   0.0126984
        k(   40) = (   0.2000000   0.7410720   0.9660979), wk =   0.0126984
        k(   41) = (   0.4000000   0.0000000   0.0000000), wk =   0.0063492
        k(   42) = (   0.4000000   0.0000000   0.2415245), wk =   0.0063492
        k(   43) = (   0.4000000   0.0000000   0.4830489), wk =   0.0063492
        k(   44) = (   0.4000000   0.0000000   0.7245734), wk =   0.0063492
        k(   45) = (   0.4000000   0.0000000   0.9660979), wk =   0.0063492
        k(   46) = (   0.4000000   0.2470240   0.0000000), wk =   0.0126984
        k(   47) = (   0.4000000   0.2470240   0.2415245), wk =   0.0126984
        k(   48) = (   0.4000000   0.2470240   0.4830489), wk =   0.0126984
        k(   49) = (   0.4000000   0.2470240   0.7245734), wk =   0.0126984
        k(   50) = (   0.4000000   0.2470240   0.9660979), wk =   0.0126984
        k(   51) = (   0.4000000   0.4940480   0.0000000), wk =   0.0126984
        k(   52) = (   0.4000000   0.4940480   0.2415245), wk =   0.0126984
        k(   53) = (   0.4000000   0.4940480   0.4830489), wk =   0.0126984
        k(   54) = (   0.4000000   0.4940480   0.7245734), wk =   0.0126984
        k(   55) = (   0.4000000   0.4940480   0.9660979), wk =   0.0126984
        k(   56) = (   0.4000000   0.7410720   0.0000000), wk =   0.0126984
        k(   57) = (   0.4000000   0.7410720   0.2415245), wk =   0.0126984
        k(   58) = (   0.4000000   0.7410720   0.4830489), wk =   0.0126984
        k(   59) = (   0.4000000   0.7410720   0.7245734), wk =   0.0126984
        k(   60) = (   0.4000000   0.7410720   0.9660979), wk =   0.0126984
        k(   61) = (  -0.2000000   0.0000000   0.2415245), wk =   0.0063492
        k(   62) = (  -0.2000000   0.0000000   0.4830489), wk =   0.0063492
        k(   63) = (  -0.2000000   0.0000000   0.7245734), wk =   0.0063492
        k(   64) = (  -0.2000000   0.0000000   0.9660979), wk =   0.0063492
        k(   65) = (  -0.2000000  -0.2470240   0.2415245), wk =   0.0126984
        k(   66) = (  -0.2000000  -0.2470240   0.4830489), wk =   0.0126984
        k(   67) = (  -0.2000000  -0.2470240   0.7245734), wk =   0.0126984
        k(   68) = (  -0.2000000  -0.2470240   0.9660979), wk =   0.0126984
        k(   69) = (  -0.2000000  -0.4940480   0.2415245), wk =   0.0126984
        k(   70) = (  -0.2000000  -0.4940480   0.4830489), wk =   0.0126984
        k(   71) = (  -0.2000000  -0.4940480   0.7245734), wk =   0.0126984
        k(   72) = (  -0.2000000  -0.4940480   0.9660979), wk =   0.0126984
        k(   73) = (  -0.2000000  -0.7410720   0.2415245), wk =   0.0126984
        k(   74) = (  -0.2000000  -0.7410720   0.4830489), wk =   0.0126984
        k(   75) = (  -0.2000000  -0.7410720   0.7245734), wk =   0.0126984
        k(   76) = (  -0.2000000  -0.7410720   0.9660979), wk =   0.0126984
        k(   77) = (  -0.4000000   0.0000000   0.2415245), wk =   0.0063492
        k(   78) = (  -0.4000000   0.0000000   0.4830489), wk =   0.0063492
        k(   79) = (  -0.4000000   0.0000000   0.7245734), wk =   0.0063492
        k(   80) = (  -0.4000000   0.0000000   0.9660979), wk =   0.0063492
        k(   81) = (  -0.4000000  -0.2470240   0.2415245), wk =   0.0126984
        k(   82) = (  -0.4000000  -0.2470240   0.4830489), wk =   0.0126984
        k(   83) = (  -0.4000000  -0.2470240   0.7245734), wk =   0.0126984
        k(   84) = (  -0.4000000  -0.2470240   0.9660979), wk =   0.0126984
        k(   85) = (  -0.4000000  -0.4940480   0.2415245), wk =   0.0126984
        k(   86) = (  -0.4000000  -0.4940480   0.4830489), wk =   0.0126984
        k(   87) = (  -0.4000000  -0.4940480   0.7245734), wk =   0.0126984
        k(   88) = (  -0.4000000  -0.4940480   0.9660979), wk =   0.0126984
        k(   89) = (  -0.4000000  -0.7410720   0.2415245), wk =   0.0126984
        k(   90) = (  -0.4000000  -0.7410720   0.4830489), wk =   0.0126984
        k(   91) = (  -0.4000000  -0.7410720   0.7245734), wk =   0.0126984
        k(   92) = (  -0.4000000  -0.7410720   0.9660979), wk =   0.0126984

                       cryst. coord.
        k(    1) = (   0.0000000   0.0000000   0.0000000), wk =   0.0031746
        k(    2) = (   0.0000000   0.0000000   0.1111111), wk =   0.0063492
        k(    3) = (   0.0000000   0.0000000   0.2222222), wk =   0.0063492
        k(    4) = (   0.0000000   0.0000000   0.3333333), wk =   0.0063492
        k(    5) = (   0.0000000   0.0000000   0.4444444), wk =   0.0063492
        k(    6) = (   0.0000000   0.1428571   0.0000000), wk =   0.0063492
        k(    7) = (   0.0000000   0.1428571   0.1111111), wk =   0.0126984
        k(    8) = (   0.0000000   0.1428571   0.2222222), wk =   0.0126984
        k(    9) = (   0.0000000   0.1428571   0.3333333), wk =   0.0126984
        k(   10) = (   0.0000000   0.1428571   0.4444444), wk =   0.0126984
        k(   11) = (   0.0000000   0.2857143   0.0000000), wk =   0.0063492
        k(   12) = (   0.0000000   0.2857143   0.1111111), wk =   0.0126984
        k(   13) = (   0.0000000   0.2857143   0.2222222), wk =   0.0126984
        k(   14) = (   0.0000000   0.2857143   0.3333333), wk =   0.0126984
        k(   15) = (   0.0000000   0.2857143   0.4444444), wk =   0.0126984
        k(   16) = (   0.0000000   0.4285714   0.0000000), wk =   0.0063492
        k(   17) = (   0.0000000   0.4285714   0.1111111), wk =   0.0126984
        k(   18) = (   0.0000000   0.4285714   0.2222222), wk =   0.0126984
        k(   19) = (   0.0000000   0.4285714   0.3333333), wk =   0.0126984
        k(   20) = (   0.0000000   0.4285714   0.4444444), wk =   0.0126984
        k(   21) = (   0.2000000   0.0000000   0.0000000), wk =   0.0063492
        k(   22) = (   0.2000000   0.0000000   0.1111111), wk =   0.0063492
        k(   23) = (   0.2000000   0.0000000   0.2222222), wk =   0.0063492
        k(   24) = (   0.2000000   0.0000000   0.3333333), wk =   0.0063492
        k(   25) = (   0.2000000   0.0000000   0.4444444), wk =   0.0063492
        k(   26) = (   0.2000000   0.1428571   0.0000000), wk =   0.0126984
        k(   27) = (   0.2000000   0.1428571   0.1111111), wk =   0.0126984
        k(   28) = (   0.2000000   0.1428571   0.2222222), wk =   0.0126984
        k(   29) = (   0.2000000   0.1428571   0.3333333), wk =   0.0126984
        k(   30) = (   0.2000000   0.1428571   0.4444444), wk =   0.0126984
        k(   31) = (   0.2000000   0.2857143   0.0000000), wk =   0.0126984
        k(   32) = (   0.2000000   0.2857143   0.1111111), wk =   0.0126984
        k(   33) = (   0.2000000   0.2857143   0.2222222), wk =   0.0126984
        k(   34) = (   0.2000000   0.2857143   0.3333333), wk =   0.0126984
        k(   35) = (   0.2000000   0.2857143   0.4444444), wk =   0.0126984
        k(   36) = (   0.2000000   0.4285714   0.0000000), wk =   0.0126984
        k(   37) = (   0.2000000   0.4285714   0.1111111), wk =   0.0126984
        k(   38) = (   0.2000000   0.4285714   0.2222222), wk =   0.0126984
        k(   39) = (   0.2000000   0.4285714   0.3333333), wk =   0.0126984
        k(   40) = (   0.2000000   0.4285714   0.4444444), wk =   0.0126984
        k(   41) = (   0.4000000   0.0000000   0.0000000), wk =   0.0063492
        k(   42) = (   0.4000000   0.0000000   0.1111111), wk =   0.0063492
        k(   43) = (   0.4000000   0.0000000   0.2222222), wk =   0.0063492
        k(   44) = (   0.4000000   0.0000000   0.3333333), wk =   0.0063492
        k(   45) = (   0.4000000   0.0000000   0.4444444), wk =   0.0063492
        k(   46) = (   0.4000000   0.1428571   0.0000000), wk =   0.0126984
        k(   47) = (   0.4000000   0.1428571   0.1111111), wk =   0.0126984
        k(   48) = (   0.4000000   0.1428571   0.2222222), wk =   0.0126984
        k(   49) = (   0.4000000   0.1428571   0.3333333), wk =   0.0126984
        k(   50) = (   0.4000000   0.1428571   0.4444444), wk =   0.0126984
        k(   51) = (   0.4000000   0.2857143   0.0000000), wk =   0.0126984
        k(   52) = (   0.4000000   0.2857143   0.1111111), wk =   0.0126984
        k(   53) = (   0.4000000   0.2857143   0.2222222), wk =   0.0126984
        k(   54) = (   0.4000000   0.2857143   0.3333333), wk =   0.0126984
        k(   55) = (   0.4000000   0.2857143   0.4444444), wk =   0.0126984
        k(   56) = (   0.4000000   0.4285714   0.0000000), wk =   0.0126984
        k(   57) = (   0.4000000   0.4285714   0.1111111), wk =   0.0126984
        k(   58) = (   0.4000000   0.4285714   0.2222222), wk =   0.0126984
        k(   59) = (   0.4000000   0.4285714   0.3333333), wk =   0.0126984
        k(   60) = (   0.4000000   0.4285714   0.4444444), wk =   0.0126984
        k(   61) = (  -0.2000000   0.0000000   0.1111111), wk =   0.0063492
        k(   62) = (  -0.2000000   0.0000000   0.2222222), wk =   0.0063492
        k(   63) = (  -0.2000000   0.0000000   0.3333333), wk =   0.0063492
        k(   64) = (  -0.2000000   0.0000000   0.4444444), wk =   0.0063492
        k(   65) = (  -0.2000000  -0.1428571   0.1111111), wk =   0.0126984
        k(   66) = (  -0.2000000  -0.1428571   0.2222222), wk =   0.0126984
        k(   67) = (  -0.2000000  -0.1428571   0.3333333), wk =   0.0126984
        k(   68) = (  -0.2000000  -0.1428571   0.4444444), wk =   0.0126984
        k(   69) = (  -0.2000000  -0.2857143   0.1111111), wk =   0.0126984
        k(   70) = (  -0.2000000  -0.2857143   0.2222222), wk =   0.0126984
        k(   71) = (  -0.2000000  -0.2857143   0.3333333), wk =   0.0126984
        k(   72) = (  -0.2000000  -0.2857143   0.4444444), wk =   0.0126984
        k(   73) = (  -0.2000000  -0.4285714   0.1111111), wk =   0.0126984
        k(   74) = (  -0.2000000  -0.4285714   0.2222222), wk =   0.0126984
        k(   75) = (  -0.2000000  -0.4285714   0.3333333), wk =   0.0126984
        k(   76) = (  -0.2000000  -0.4285714   0.4444444), wk =   0.0126984
        k(   77) = (  -0.4000000   0.0000000   0.1111111), wk =   0.0063492
        k(   78) = (  -0.4000000   0.0000000   0.2222222), wk =   0.0063492
        k(   79) = (  -0.4000000   0.0000000   0.3333333), wk =   0.0063492
        k(   80) = (  -0.4000000   0.0000000   0.4444444), wk =   0.0063492
        k(   81) = (  -0.4000000  -0.1428571   0.1111111), wk =   0.0126984
        k(   82) = (  -0.4000000  -0.1428571   0.2222222), wk =   0.0126984
        k(   83) = (  -0.4000000  -0.1428571   0.3333333), wk =   0.0126984
        k(   84) = (  -0.4000000  -0.1428571   0.4444444), wk =   0.0126984
        k(   85) = (  -0.4000000  -0.2857143   0.1111111), wk =   0.0126984
        k(   86) = (  -0.4000000  -0.2857143   0.2222222), wk =   0.0126984
        k(   87) = (  -0.4000000  -0.2857143   0.3333333), wk =   0.0126984
        k(   88) = (  -0.4000000  -0.2857143   0.4444444), wk =   0.0126984
        k(   89) = (  -0.4000000  -0.4285714   0.1111111), wk =   0.0126984
        k(   90) = (  -0.4000000  -0.4285714   0.2222222), wk =   0.0126984
        k(   91) = (  -0.4000000  -0.4285714   0.3333333), wk =   0.0126984
        k(   92) = (  -0.4000000  -0.4285714   0.4444444), wk =   0.0126984

     Dense  grid:  1338043 G-vectors     FFT dimensions: ( 216, 128, 100)

     Smooth grid:   301725 G-vectors     FFT dimensions: ( 135,  80,  60)

     Dynamical RAM for                 wfc:       6.23 MB

     Dynamical RAM for     wfc (w. buffer):    1152.66 MB

     Dynamical RAM for           str. fact:       6.81 MB

     Dynamical RAM for           local pot:       0.00 MB

     Dynamical RAM for          nlocal pot:      14.57 MB

     Dynamical RAM for                qrad:      10.54 MB

     Dynamical RAM for          rho,v,vnew:      21.60 MB

     Dynamical RAM for               rhoin:       7.20 MB

     Dynamical RAM for            rho*nmix:      54.45 MB

     Dynamical RAM for           G-vectors:       6.57 MB

     Dynamical RAM for          h,s,v(r/c):       3.09 MB

     Dynamical RAM for          <psi|beta>:       0.60 MB

     Dynamical RAM for                 psi:      12.46 MB

     Dynamical RAM for                hpsi:      12.46 MB

     Dynamical RAM for                spsi:      12.46 MB

     Dynamical RAM for      wfcinit/wfcrot:      15.10 MB

     Dynamical RAM for           addusdens:     345.39 MB

     Dynamical RAM for          addusforce:     396.56 MB

     Dynamical RAM for         addusstress:     344.54 MB

     Estimated static dynamical RAM per process >       1.26 GB

     Estimated max dynamical RAM per process >       1.65 GB

     Estimated total dynamical RAM >      19.81 GB

     Check: negative core charge=   -0.000003
     Generating pointlists ...
     new r_m :   0.0815 (alat units)  1.6562 (a.u.) for type    1
     new r_m :   0.0887 (alat units)  1.8017 (a.u.) for type    2
     new r_m :   0.0588 (alat units)  1.1956 (a.u.) for type    3
     new r_m :   0.0588 (alat units)  1.1956 (a.u.) for type    4

     Initial potential from superposition of free atoms

     starting charge  215.97252, renormalised to  216.00000
     Starting wfcs are  152 randomized atomic wfcs
     Checking if some PAW data can be deallocated... 
       PAW data deallocated on   10 nodes for type:  1
       PAW data deallocated on    4 nodes for type:  3

     total cpu time spent up to now is     1648.3 secs

     Self-consistent Calculation

     iteration #  1     ecut=   100.00 Ry     beta= 0.40
     Davidson diagonalization with overlap
     ethr =  1.00E-02,  avg # of iterations =  3.2

     negative rho (up, down):  0.000E+00 4.346E-05

     total cpu time spent up to now is     6340.4 secs

     total energy              =   -2380.63665965 Ry
     estimated scf accuracy    <       5.74609445 Ry

     total magnetization       =    16.00 Bohr mag/cell
     absolute magnetization    =    16.01 Bohr mag/cell

     iteration #  2     ecut=   100.00 Ry     beta= 0.40
     Davidson diagonalization with overlap
     ethr =  2.66E-03,  avg # of iterations =  2.0

     negative rho (up, down):  0.000E+00 1.561E-04

     total cpu time spent up to now is    10758.6 secs

     total energy              =   -2382.02194906 Ry
     estimated scf accuracy    <       0.55292814 Ry

     total magnetization       =    16.00 Bohr mag/cell
     absolute magnetization    =    16.01 Bohr mag/cell

     iteration #  3     ecut=   100.00 Ry     beta= 0.40
     Davidson diagonalization with overlap
     ethr =  2.56E-04,  avg # of iterations =  9.3

     negative rho (up, down):  0.000E+00 1.808E-04

     total cpu time spent up to now is    15724.6 secs

     total energy              =   -2382.04151287 Ry
     estimated scf accuracy    <       3.68607995 Ry

     total magnetization       =    16.00 Bohr mag/cell
     absolute magnetization    =    16.05 Bohr mag/cell

     iteration #  4     ecut=   100.00 Ry     beta= 0.40
     Davidson diagonalization with overlap
     ethr =  2.56E-04,  avg # of iterations =  2.0

     negative rho (up, down):  0.000E+00 3.301E-04

     total cpu time spent up to now is    19508.8 secs

     total energy              =   -2382.08289552 Ry
     estimated scf accuracy    <       1.46292457 Ry

     total magnetization       =    16.00 Bohr mag/cell
     absolute magnetization    =    16.06 Bohr mag/cell

     iteration #  5     ecut=   100.00 Ry     beta= 0.40
     Davidson diagonalization with overlap
     ethr =  2.56E-04,  avg # of iterations =  1.5

     negative rho (up, down):  0.000E+00 4.963E-04

     total cpu time spent up to now is    23129.6 secs

     total energy              =   -2382.05209803 Ry
     estimated scf accuracy    <       2.32099113 Ry

     total magnetization       =    16.00 Bohr mag/cell
     absolute magnetization    =    16.06 Bohr mag/cell

     iteration #  6     ecut=   100.00 Ry     beta= 0.40
     Davidson diagonalization with overlap
     ethr =  2.56E-04,  avg # of iterations =  2.0

     negative rho (up, down):  0.000E+00 5.073E-04

     total cpu time spent up to now is    26820.3 secs

     total energy              =   -2382.17750069 Ry
     estimated scf accuracy    <       2.47048280 Ry

     total magnetization       =    16.00 Bohr mag/cell
     absolute magnetization    =    16.07 Bohr mag/cell

     iteration #  7     ecut=   100.00 Ry     beta= 0.40
     Davidson diagonalization with overlap
     ethr =  2.56E-04,  avg # of iterations =  1.0

     negative rho (up, down):  0.000E+00 5.179E-04

     total cpu time spent up to now is    30312.9 secs

     total energy              =   -2382.19020209 Ry
     estimated scf accuracy    <       0.20920292 Ry

     total magnetization       =    16.00 Bohr mag/cell
     absolute magnetization    =    16.07 Bohr mag/cell

     iteration #  8     ecut=   100.00 Ry     beta= 0.40
     Davidson diagonalization with overlap
     ethr =  9.69E-05,  avg # of iterations =  1.1

     negative rho (up, down):  0.000E+00 5.177E-04

     total cpu time spent up to now is    33825.1 secs

     total energy              =   -2382.20201947 Ry
     estimated scf accuracy    <       0.19007503 Ry

     total magnetization       =    16.00 Bohr mag/cell
     absolute magnetization    =    16.08 Bohr mag/cell

     iteration #  9     ecut=   100.00 Ry     beta= 0.40
     Davidson diagonalization with overlap
     ethr =  8.80E-05,  avg # of iterations =  1.0

     negative rho (up, down):  0.000E+00 5.123E-04

     total cpu time spent up to now is    37342.9 secs

     total energy              =   -2382.20307572 Ry
     estimated scf accuracy    <       0.18687340 Ry

     total magnetization       =    16.00 Bohr mag/cell
     absolute magnetization    =    16.08 Bohr mag/cell

     iteration # 10     ecut=   100.00 Ry     beta= 0.40
     Davidson diagonalization with overlap
     ethr =  8.65E-05,  avg # of iterations =  1.0

     negative rho (up, down):  0.000E+00 4.680E-04

     total cpu time spent up to now is    40832.8 secs

     total energy              =   -2382.20292877 Ry
     estimated scf accuracy    <       0.18234435 Ry

     total magnetization       =    16.00 Bohr mag/cell
     absolute magnetization    =    16.08 Bohr mag/cell

     iteration # 11     ecut=   100.00 Ry     beta= 0.40
     Davidson diagonalization with overlap
     ethr =  8.44E-05,  avg # of iterations =  1.0

     negative rho (up, down):  0.000E+00 4.553E-04

     total cpu time spent up to now is    44329.0 secs

     total energy              =   -2382.21095154 Ry
     estimated scf accuracy    <       0.04480755 Ry

     total magnetization       =    16.00 Bohr mag/cell
     absolute magnetization    =    16.08 Bohr mag/cell

     iteration # 12     ecut=   100.00 Ry     beta= 0.40
     Davidson diagonalization with overlap
     c_bands:  1 eigenvalues not converged
     ethr =  2.07E-05,  avg # of iterations =  5.1

     negative rho (up, down):  0.000E+00 4.702E-04

     total cpu time spent up to now is    48189.0 secs

     total energy              =   -2382.21168162 Ry
     estimated scf accuracy    <       0.04416219 Ry

     total magnetization       =    16.00 Bohr mag/cell
     absolute magnetization    =    16.09 Bohr mag/cell

     iteration # 13     ecut=   100.00 Ry     beta= 0.40
     Davidson diagonalization with overlap
     ethr =  2.04E-05,  avg # of iterations =  1.1

     negative rho (up, down):  0.000E+00 4.715E-04

     total cpu time spent up to now is    51704.5 secs

     total energy              =   -2382.21207480 Ry
     estimated scf accuracy    <       0.04287198 Ry

     total magnetization       =    16.00 Bohr mag/cell
     absolute magnetization    =    16.09 Bohr mag/cell

     iteration # 14     ecut=   100.00 Ry     beta= 0.40
     Davidson diagonalization with overlap
     ethr =  1.98E-05,  avg # of iterations =  1.0

     negative rho (up, down):  0.000E+00 4.754E-04

     total cpu time spent up to now is    55199.6 secs

     total energy              =   -2382.21237297 Ry
     estimated scf accuracy    <       0.04433329 Ry

     total magnetization       =    16.00 Bohr mag/cell
     absolute magnetization    =    16.09 Bohr mag/cell

     iteration # 15     ecut=   100.00 Ry     beta= 0.40
     Davidson diagonalization with overlap
     ethr =  1.98E-05,  avg # of iterations =  1.0

     negative rho (up, down):  0.000E+00 6.466E-04

     total cpu time spent up to now is    58719.4 secs

     total energy              =   -2382.21510951 Ry
     estimated scf accuracy    <       0.03986616 Ry

     total magnetization       =    16.00 Bohr mag/cell
     absolute magnetization    =    16.09 Bohr mag/cell

     iteration # 16     ecut=   100.00 Ry     beta= 0.40
     Davidson diagonalization with overlap
     ethr =  1.85E-05,  avg # of iterations =  2.0

     negative rho (up, down):  0.000E+00 5.931E-04

     total cpu time spent up to now is    63153.8 secs

     total energy              =   -2382.21828445 Ry
     estimated scf accuracy    <       0.03849822 Ry

     total magnetization       =    16.00 Bohr mag/cell
     absolute magnetization    =    16.11 Bohr mag/cell

     iteration # 17     ecut=   100.00 Ry     beta= 0.40
     Davidson diagonalization with overlap
     ethr =  1.78E-05,  avg # of iterations =  1.0

     negative rho (up, down):  0.000E+00 4.994E-04

     total cpu time spent up to now is    66661.6 secs

     total energy              =   -2382.21614548 Ry
     estimated scf accuracy    <       0.01263624 Ry

     total magnetization       =    16.00 Bohr mag/cell
     absolute magnetization    =    16.10 Bohr mag/cell

     iteration # 18     ecut=   100.00 Ry     beta= 0.40
     Davidson diagonalization with overlap
     c_bands:  1 eigenvalues not converged
     c_bands:  1 eigenvalues not converged
     c_bands:  1 eigenvalues not converged
     ethr =  5.85E-06,  avg # of iterations =  6.4

     negative rho (up, down):  0.000E+00 4.997E-04

     total cpu time spent up to now is    71348.3 secs

     total energy              =   -2382.21790575 Ry
     estimated scf accuracy    <       0.00376522 Ry

     total magnetization       =    16.00 Bohr mag/cell
     absolute magnetization    =    16.10 Bohr mag/cell

     iteration # 19     ecut=   100.00 Ry     beta= 0.40
     Davidson diagonalization with overlap
     c_bands:  1 eigenvalues not converged
     c_bands:  1 eigenvalues not converged
     c_bands:  1 eigenvalues not converged
     c_bands:  1 eigenvalues not converged
     c_bands:  1 eigenvalues not converged
     ethr =  1.74E-06,  avg # of iterations =  6.2

     negative rho (up, down):  0.000E+00 5.025E-04

     total cpu time spent up to now is    75349.6 secs

     total energy              =   -2382.21811342 Ry
     estimated scf accuracy    <       0.00065328 Ry

     total magnetization       =    16.00 Bohr mag/cell
     absolute magnetization    =    16.09 Bohr mag/cell

     iteration # 20     ecut=   100.00 Ry     beta= 0.40
     Davidson diagonalization with overlap
     c_bands:  1 eigenvalues not converged
     ethr =  3.02E-07,  avg # of iterations =  4.1

     negative rho (up, down):  0.000E+00 5.054E-04

     total cpu time spent up to now is    79462.6 secs

     total energy              =   -2382.21824522 Ry
     estimated scf accuracy    <       0.00138903 Ry

     total magnetization       =    16.00 Bohr mag/cell
     absolute magnetization    =    16.09 Bohr mag/cell

     iteration # 21     ecut=   100.00 Ry     beta= 0.40
     Davidson diagonalization with overlap
     ethr =  3.02E-07,  avg # of iterations =  1.1

     negative rho (up, down):  0.000E+00 5.053E-04

     total cpu time spent up to now is    82986.0 secs

     total energy              =   -2382.21831469 Ry
     estimated scf accuracy    <       0.00015816 Ry

     total magnetization       =    16.00 Bohr mag/cell
     absolute magnetization    =    16.09 Bohr mag/cell

     iteration # 22     ecut=   100.00 Ry     beta= 0.40
     Davidson diagonalization with overlap
     ethr =  7.32E-08,  avg # of iterations =  2.0

     negative rho (up, down):  0.000E+00 5.092E-04

     total cpu time spent up to now is    86668.4 secs

     total energy              =   -2382.21835176 Ry
     estimated scf accuracy    <       0.00017646 Ry

     total magnetization       =    16.00 Bohr mag/cell
     absolute magnetization    =    16.09 Bohr mag/cell

     iteration # 23     ecut=   100.00 Ry     beta= 0.40
     Davidson diagonalization with overlap
     ethr =  7.32E-08,  avg # of iterations =  2.0

     negative rho (up, down):  0.000E+00 5.121E-04

     total cpu time spent up to now is    90454.9 secs

     total energy              =   -2382.21834296 Ry
     estimated scf accuracy    <       0.00026595 Ry

     total magnetization       =    16.00 Bohr mag/cell
     absolute magnetization    =    16.09 Bohr mag/cell

     iteration # 24     ecut=   100.00 Ry     beta= 0.40
     Davidson diagonalization with overlap
     ethr =  7.32E-08,  avg # of iterations =  2.3

     negative rho (up, down):  0.000E+00 5.171E-04

     total cpu time spent up to now is    94523.9 secs

     total energy              =   -2382.21836146 Ry
     estimated scf accuracy    <       0.00010052 Ry

     total magnetization       =    16.00 Bohr mag/cell
     absolute magnetization    =    16.09 Bohr mag/cell

     iteration # 25     ecut=   100.00 Ry     beta= 0.40
     Davidson diagonalization with overlap
     ethr =  4.65E-08,  avg # of iterations =  3.5

     negative rho (up, down):  0.000E+00 5.203E-04

     total cpu time spent up to now is    99045.0 secs

     total energy              =   -2382.21866637 Ry
     estimated scf accuracy    <       0.00002054 Ry

     total magnetization       =    16.00 Bohr mag/cell
     absolute magnetization    =    16.08 Bohr mag/cell

     iteration # 26     ecut=   100.00 Ry     beta= 0.40
     Davidson diagonalization with overlap
     ethr =  9.51E-09,  avg # of iterations =  3.2

     negative rho (up, down):  0.000E+00 5.211E-04

     total cpu time spent up to now is   103474.3 secs

     total energy              =   -2382.21872231 Ry
     estimated scf accuracy    <       0.00009359 Ry

     total magnetization       =    16.00 Bohr mag/cell
     absolute magnetization    =    16.08 Bohr mag/cell

     iteration # 27     ecut=   100.00 Ry     beta= 0.40
     Davidson diagonalization with overlap
     ethr =  9.51E-09,  avg # of iterations =  2.0

     negative rho (up, down):  0.000E+00 5.236E-04

     total cpu time spent up to now is   107267.0 secs

     total energy              =   -2382.21867495 Ry
     estimated scf accuracy    <       0.00003073 Ry

     total magnetization       =    16.00 Bohr mag/cell
     absolute magnetization    =    16.08 Bohr mag/cell

     iteration # 28     ecut=   100.00 Ry     beta= 0.40
     Davidson diagonalization with overlap
     ethr =  9.51E-09,  avg # of iterations =  2.8

     negative rho (up, down):  0.000E+00 5.248E-04

     total cpu time spent up to now is   111628.3 secs

     total energy              =   -2382.21873264 Ry
     estimated scf accuracy    <       0.00003057 Ry

     total magnetization       =    16.00 Bohr mag/cell
     absolute magnetization    =    16.08 Bohr mag/cell

     iteration # 29     ecut=   100.00 Ry     beta= 0.40
     Davidson diagonalization with overlap
     ethr =  9.51E-09,  avg # of iterations =  2.0

     negative rho (up, down):  0.000E+00 5.245E-04

     total cpu time spent up to now is   115395.7 secs

     total energy              =   -2382.21874807 Ry
     estimated scf accuracy    <       0.00000398 Ry

     total magnetization       =    16.00 Bohr mag/cell
     absolute magnetization    =    16.08 Bohr mag/cell

     iteration # 30     ecut=   100.00 Ry     beta= 0.40
     Davidson diagonalization with overlap
     ethr =  1.84E-09,  avg # of iterations =  2.0

     negative rho (up, down):  0.000E+00 5.245E-04

     total cpu time spent up to now is   119155.1 secs

     total energy              =   -2382.21875049 Ry
     estimated scf accuracy    <       0.00000033 Ry

     total magnetization       =    16.00 Bohr mag/cell
     absolute magnetization    =    16.08 Bohr mag/cell

     iteration # 31     ecut=   100.00 Ry     beta= 0.40
     Davidson diagonalization with overlap
     ethr =  1.52E-10,  avg # of iterations =  5.0

     negative rho (up, down):  0.000E+00 5.244E-04

     total cpu time spent up to now is   124661.4 secs

     total energy              =   -2382.21875207 Ry
     estimated scf accuracy    <       0.00000025 Ry

     total magnetization       =    16.00 Bohr mag/cell
     absolute magnetization    =    16.08 Bohr mag/cell

     iteration # 32     ecut=   100.00 Ry     beta= 0.40
     Davidson diagonalization with overlap
     ethr =  1.17E-10,  avg # of iterations =  2.0

     negative rho (up, down):  0.000E+00 5.243E-04

     total cpu time spent up to now is   128484.5 secs

     total energy              =   -2382.21875250 Ry
     estimated scf accuracy    <       0.00000034 Ry

     total magnetization       =    16.00 Bohr mag/cell
     absolute magnetization    =    16.08 Bohr mag/cell

     iteration # 33     ecut=   100.00 Ry     beta= 0.40
     Davidson diagonalization with overlap
     ethr =  1.17E-10,  avg # of iterations =  2.0

     negative rho (up, down):  0.000E+00 5.244E-04

     total cpu time spent up to now is   132376.0 secs

     total energy              =   -2382.21875282 Ry
     estimated scf accuracy    <       0.00000024 Ry

     total magnetization       =    16.00 Bohr mag/cell
     absolute magnetization    =    16.08 Bohr mag/cell

     iteration # 34     ecut=   100.00 Ry     beta= 0.40
     Davidson diagonalization with overlap
     ethr =  1.10E-10,  avg # of iterations =  2.2

     negative rho (up, down):  0.000E+00 5.247E-04

     total cpu time spent up to now is   136308.0 secs

     total energy              =   -2382.21875223 Ry
     estimated scf accuracy    <       0.00000010 Ry

     total magnetization       =    16.00 Bohr mag/cell
     absolute magnetization    =    16.08 Bohr mag/cell

     iteration # 35     ecut=   100.00 Ry     beta= 0.40
     Davidson diagonalization with overlap
     ethr =  4.67E-11,  avg # of iterations =  4.4

     negative rho (up, down):  0.000E+00 5.249E-04

     total cpu time spent up to now is   138771.8 secs

     total energy              =   -2382.21875325 Ry
     estimated scf accuracy    <       0.00000002 Ry

     total magnetization       =    16.00 Bohr mag/cell
     absolute magnetization    =    16.08 Bohr mag/cell

     iteration # 36     ecut=   100.00 Ry     beta= 0.40
     Davidson diagonalization with overlap
     ethr =  8.09E-12,  avg # of iterations =  4.0

     negative rho (up, down):  0.000E+00 5.250E-04

     total cpu time spent up to now is   143120.5 secs

     total energy              =   -2382.21875339 Ry
     estimated scf accuracy    <       0.00000001 Ry

     total magnetization       =    16.00 Bohr mag/cell
     absolute magnetization    =    16.08 Bohr mag/cell

     iteration # 37     ecut=   100.00 Ry     beta= 0.40
     Davidson diagonalization with overlap
     ethr =  5.16E-12,  avg # of iterations =  2.0

     negative rho (up, down):  0.000E+00 5.250E-04

     total cpu time spent up to now is   147243.0 secs

     total energy              =   -2382.21875343 Ry
     estimated scf accuracy    <          3.5E-09 Ry

     total magnetization       =    16.00 Bohr mag/cell
     absolute magnetization    =    16.08 Bohr mag/cell

     iteration # 38     ecut=   100.00 Ry     beta= 0.40
     Davidson diagonalization with overlap
     ethr =  1.62E-12,  avg # of iterations =  2.8

     negative rho (up, down):  0.000E+00 5.250E-04

     total cpu time spent up to now is   151510.9 secs

     total energy              =   -2382.21875345 Ry
     estimated scf accuracy    <          2.7E-10 Ry

     total magnetization       =    16.00 Bohr mag/cell
     absolute magnetization    =    16.08 Bohr mag/cell

     iteration # 39     ecut=   100.00 Ry     beta= 0.40
     Davidson diagonalization with overlap
     ethr =  1.23E-13,  avg # of iterations =  4.5

     negative rho (up, down):  0.000E+00 5.250E-04

     Magnetic moment per site:
     atom:    1    charge:    7.9612    magn:    0.0001    constr:    0.0000
     atom:    2    charge:    7.9612    magn:    0.0001    constr:    0.0000
     atom:    3    charge:    7.9612    magn:    0.0001    constr:    0.0000
     atom:    4    charge:    7.9612    magn:    0.0001    constr:    0.0000
     atom:    5    charge:   13.4460    magn:    3.3945    constr:    0.0000
     atom:    6    charge:   13.4459    magn:    3.3945    constr:    0.0000
     atom:    7    charge:   13.4460    magn:    3.3945    constr:    0.0000
     atom:    8    charge:   13.4459    magn:    3.3945    constr:    0.0000
     atom:    9    charge:    0.8517    magn:    0.0061    constr:    0.0000
     atom:   10    charge:    0.8517    magn:    0.0061    constr:    0.0000
     atom:   11    charge:    0.8517    magn:    0.0061    constr:    0.0000
     atom:   12    charge:    0.8517    magn:    0.0061    constr:    0.0000
     atom:   13    charge:    4.2595    magn:    0.0297    constr:    0.0000
     atom:   14    charge:    4.2595    magn:    0.0297    constr:    0.0000
     atom:   15    charge:    4.2595    magn:    0.0297    constr:    0.0000
     atom:   16    charge:    4.2595    magn:    0.0297    constr:    0.0000
     atom:   17    charge:    4.2339    magn:    0.0415    constr:    0.0000
     atom:   18    charge:    4.2339    magn:    0.0415    constr:    0.0000
     atom:   19    charge:    4.2339    magn:    0.0415    constr:    0.0000
     atom:   20    charge:    4.2340    magn:    0.0415    constr:    0.0000
     atom:   21    charge:    4.2504    magn:    0.0705    constr:    0.0000
     atom:   22    charge:    4.2504    magn:    0.0705    constr:    0.0000
     atom:   23    charge:    4.2504    magn:    0.0705    constr:    0.0000
     atom:   24    charge:    4.2504    magn:    0.0705    constr:    0.0000
     atom:   25    charge:    4.2504    magn:    0.0705    constr:    0.0000
     atom:   26    charge:    4.2504    magn:    0.0705    constr:    0.0000
     atom:   27    charge:    4.2504    magn:    0.0705    constr:    0.0000
     atom:   28    charge:    4.2504    magn:    0.0705    constr:    0.0000

     total cpu time spent up to now is   156671.1 secs

     End of self-consistent calculation

 ------ SPIN UP ------------


          k = 0.0000 0.0000 0.0000 ( 37701 PWs)   bands (ev):

   -81.5475 -81.5471 -81.5459 -81.5454 -48.4489 -48.4481 -48.4473 -48.4464
   -47.5044 -47.5039 -47.5027 -47.5021 -46.8387 -46.8380 -46.8370 -46.8363
   -43.3272 -43.3271 -43.3190 -43.3190 -15.5486 -15.5350 -15.3870 -15.3820
   -15.3397 -15.3380 -15.3196 -15.3172 -15.2674 -15.2673 -15.2463 -15.2462
   -14.8872 -14.7213 -14.5408 -14.4227 -12.3062 -12.2969 -12.2803 -12.2499
   -12.2480 -12.2264 -12.1416 -12.0963 -11.8658 -11.8353 -11.8261 -11.7800
    -2.3711  -2.0183  -1.7901  -1.7763  -0.6378  -0.3355  -0.2231  -0.0846
     0.0938   0.2054   0.4564   0.4752   0.5226   0.5392   0.5607   0.8418
     1.7210   1.8872   2.1510   2.2593   2.4287   2.4978   2.5292   2.5587
     2.5969   2.6972   2.8153   3.0044   3.1196   3.1470   3.1492   3.3697
     3.3733   3.4053   3.4383   3.4775   3.6217   3.6609   3.8136   3.9026
     3.9399   4.0108   4.1514   4.3765   4.4536   4.5176   4.7565   4.7679
     4.9584   5.0542   5.1985   5.3023   5.3162   5.3679   5.4171   5.4309
     5.5363   5.7381   5.9151   6.0231   6.1369   6.1930   6.2020   6.4377
     6.5417   6.5661   6.5870   6.6541   9.7879  11.7319  12.0649  12.5175
    12.9006  13.5433  13.7821  14.3048  14.6485  14.6834  14.7585  14.8122
    14.8309  14.8827

     occupation numbers 
     1.0000   1.0000   1.0000   1.0000   1.0000   1.0000   1.0000   1.0000
     1.0000   1.0000   1.0000   1.0000   1.0000   1.0000   1.0000   1.0000
     1.0000   1.0000   1.0000   1.0000   1.0000   1.0000   1.0000   1.0000
     1.0000   1.0000   1.0000   1.0000   1.0000   1.0000   1.0000   1.0000
     1.0000   1.0000   1.0000   1.0000   1.0000   1.0000   1.0000   1.0000
     1.0000   1.0000   1.0000   1.0000   1.0000   1.0000   1.0000   1.0000
     1.0000   1.0000   1.0000   1.0000   1.0000   1.0000   1.0000   1.0000
     1.0000   1.0000   1.0000   1.0000   1.0000   1.0000   1.0000   1.0000
     1.0000   1.0000   1.0000   1.0000   1.0000   1.0000   1.0000   1.0000
     1.0000   1.0000   1.0000   1.0000   1.0000   1.0000   1.0000   1.0000
     1.0000   1.0000   1.0000   1.0000   1.0000   1.0000   1.0000   1.0000
     1.0000   1.0000   1.0000   1.0000   1.0000   1.0000   1.0000   1.0000
     1.0000   1.0000   1.0000   1.0000   1.0000   1.0000   1.0000   1.0000
     1.0000   1.0000   1.0000   1.0000   1.0000   1.0000   1.0000   1.0000
     1.0000   1.0000   1.0000   1.0000   0.0000   0.0000   0.0000   0.0000
     0.0000   0.0000   0.0000   0.0000   0.0000   0.0000   0.0000   0.0000
     0.0000   0.0000

          k = 0.0000 0.0000 0.2415 ( 37675 PWs)   bands (ev):

   -81.5475 -81.5471 -81.5459 -81.5454 -48.4489 -48.4481 -48.4473 -48.4464
   -47.5044 -47.5039 -47.5027 -47.5021 -46.8387 -46.8380 -46.8370 -46.8363
   -43.3272 -43.3271 -43.3190 -43.3190 -15.5413 -15.5288 -15.3928 -15.3882
   -15.3397 -15.3382 -15.3309 -15.3249 -15.2674 -15.2674 -15.2464 -15.2463
   -14.8507 -14.6970 -14.5461 -14.4349 -12.3178 -12.2906 -12.2902 -12.2682
   -12.2444 -12.2322 -12.1445 -12.1019 -11.8830 -11.8303 -11.8188 -11.7803
    -2.3530  -2.0179  -1.8059  -1.7629  -0.5739  -0.3089  -0.1587  -0.0242
     0.0930   0.2219   0.4529   0.4923   0.5223   0.5334   0.5349   0.8208
     1.7181   1.8746   2.1568   2.2037   2.4208   2.4309   2.4792   2.5546
     2.5606   2.7591   2.7669   2.9512   3.0678   3.1007   3.2038   3.2633
     3.3404   3.4691   3.5137   3.5219   3.6022   3.7105   3.8006   3.8773
     3.9140   4.0575   4.1843   4.4007   4.4782   4.5181   4.7513   4.7543
     4.9473   5.0556   5.1517   5.3035   5.3087   5.3572   5.3692   5.4224
     5.5803   5.7593   5.9440   6.0614   6.1414   6.2103   6.2209   6.4063
     6.5178   6.5661   6.5738   6.6449   9.9408  11.7838  12.1524  12.5188
    12.9463  13.4039  13.9808  14.0332  14.4222  14.5704  14.6124  14.6324
    14.9790  15.0061

     occupation numbers 
     1.0000   1.0000   1.0000   1.0000   1.0000   1.0000   1.0000   1.0000
     1.0000   1.0000   1.0000   1.0000   1.0000   1.0000   1.0000   1.0000
     1.0000   1.0000   1.0000   1.0000   1.0000   1.0000   1.0000   1.0000
     1.0000   1.0000   1.0000   1.0000   1.0000   1.0000   1.0000   1.0000
     1.0000   1.0000   1.0000   1.0000   1.0000   1.0000   1.0000   1.0000
     1.0000   1.0000   1.0000   1.0000   1.0000   1.0000   1.0000   1.0000
     1.0000   1.0000   1.0000   1.0000   1.0000   1.0000   1.0000   1.0000
     1.0000   1.0000   1.0000   1.0000   1.0000   1.0000   1.0000   1.0000
     1.0000   1.0000   1.0000   1.0000   1.0000   1.0000   1.0000   1.0000
     1.0000   1.0000   1.0000   1.0000   1.0000   1.0000   1.0000   1.0000
     1.0000   1.0000   1.0000   1.0000   1.0000   1.0000   1.0000   1.0000
     1.0000   1.0000   1.0000   1.0000   1.0000   1.0000   1.0000   1.0000
     1.0000   1.0000   1.0000   1.0000   1.0000   1.0000   1.0000   1.0000
     1.0000   1.0000   1.0000   1.0000   1.0000   1.0000   1.0000   1.0000
     1.0000   1.0000   1.0000   1.0000   0.0000   0.0000   0.0000   0.0000
     0.0000   0.0000   0.0000   0.0000   0.0000   0.0000   0.0000   0.0000
     0.0000   0.0000

          k = 0.0000 0.0000 0.4830 ( 37730 PWs)   bands (ev):

   -81.5475 -81.5471 -81.5459 -81.5454 -48.4489 -48.4482 -48.4472 -48.4465
   -47.5044 -47.5039 -47.5027 -47.5021 -46.8387 -46.8380 -46.8370 -46.8363
   -43.3272 -43.3271 -43.3190 -43.3190 -15.5254 -15.5153 -15.4121 -15.4074
   -15.3418 -15.3398 -15.3386 -15.3333 -15.2675 -15.2675 -15.2467 -15.2466
   -14.7658 -14.6417 -14.5586 -14.4673 -12.3526 -12.3107 -12.3088 -12.2727
   -12.2545 -12.2339 -12.1530 -12.1183 -11.9072 -11.8480 -11.7937 -11.7748
    -2.2991  -2.0101  -1.8370  -1.7653  -0.3832  -0.2257  -0.0076   0.0967
     0.1300   0.2646   0.4496   0.4585   0.4977   0.5582   0.5715   0.7601
     1.7054   1.8417   2.0671   2.1744   2.2691   2.3890   2.4266   2.4608
     2.5394   2.6439   2.8175   2.9239   2.9803   3.0219   3.0344   3.2460
     3.2544   3.3856   3.5417   3.6508   3.6946   3.8182   3.8225   3.8363
     3.9690   4.1384   4.1887   4.4634   4.5162   4.5458   4.7322   4.7480
     4.9278   5.0592   5.0819   5.1941   5.2662   5.3055   5.3988   5.4108
     5.6887   5.8317   5.9964   6.1390   6.1553   6.2590   6.2593   6.3509
     6.4468   6.5034   6.5791   6.6207  10.3444  11.9306  12.3222  12.5799
    13.0916  13.2744  13.5271  14.0828  14.1939  14.2435  14.4022  14.5816
    14.8443  14.9783

     occupation numbers 
     1.0000   1.0000   1.0000   1.0000   1.0000   1.0000   1.0000   1.0000
     1.0000   1.0000   1.0000   1.0000   1.0000   1.0000   1.0000   1.0000
     1.0000   1.0000   1.0000   1.0000   1.0000   1.0000   1.0000   1.0000
     1.0000   1.0000   1.0000   1.0000   1.0000   1.0000   1.0000   1.0000
     1.0000   1.0000   1.0000   1.0000   1.0000   1.0000   1.0000   1.0000
     1.0000   1.0000   1.0000   1.0000   1.0000   1.0000   1.0000   1.0000
     1.0000   1.0000   1.0000   1.0000   1.0000   1.0000   1.0000   1.0000
     1.0000   1.0000   1.0000   1.0000   1.0000   1.0000   1.0000   1.0000
     1.0000   1.0000   1.0000   1.0000   1.0000   1.0000   1.0000   1.0000
     1.0000   1.0000   1.0000   1.0000   1.0000   1.0000   1.0000   1.0000
     1.0000   1.0000   1.0000   1.0000   1.0000   1.0000   1.0000   1.0000
     1.0000   1.0000   1.0000   1.0000   1.0000   1.0000   1.0000   1.0000
     1.0000   1.0000   1.0000   1.0000   1.0000   1.0000   1.0000   1.0000
     1.0000   1.0000   1.0000   1.0000   1.0000   1.0000   1.0000   1.0000
     1.0000   1.0000   1.0000   1.0000   0.0000   0.0000   0.0000   0.0000
     0.0000   0.0000   0.0000   0.0000   0.0000   0.0000   0.0000   0.0000
     0.0000   0.0000

          k = 0.0000 0.0000 0.7246 ( 37724 PWs)   bands (ev):

   -81.5475 -81.5471 -81.5459 -81.5454 -48.4488 -48.4482 -48.4471 -48.4466
   -47.5044 -47.5039 -47.5027 -47.5021 -46.8386 -46.8381 -46.8370 -46.8363
   -43.3272 -43.3271 -43.3190 -43.3190 -15.5166 -15.5089 -15.4269 -15.4244
   -15.3401 -15.3391 -15.3387 -15.3326 -15.2676 -15.2676 -15.2470 -15.2469
   -14.6758 -14.5950 -14.5660 -14.5044 -12.3939 -12.3610 -12.3243 -12.2880
   -12.2458 -12.2180 -12.1669 -12.1432 -11.9207 -11.8751 -11.7725 -11.7647
    -2.2123  -1.9840  -1.8949  -1.8074  -0.1018  -0.0942   0.1096   0.1185
     0.2797   0.3248   0.3563   0.4622   0.4849   0.6716   0.6964   0.7017
     1.6643   1.8117   1.8833   2.0791   2.2064   2.3256   2.3401   2.3978
     2.5010   2.5075   2.5819   2.8258   2.9517   3.0198   3.0358   3.1481
     3.2619   3.2834   3.4450   3.5626   3.8480   3.8967   3.9392   3.9620
     4.0272   4.2259   4.2325   4.4272   4.4957   4.6047   4.7176   4.8254
     4.9257   5.0365   5.0654   5.0878   5.1709   5.2842   5.3813   5.4322
     5.8371   5.9562   6.0435   6.1711   6.2052   6.2386   6.3236   6.3318
     6.3640   6.4008   6.5720   6.5907  10.8870  12.1605  12.3002  12.8138
    13.0796  13.2047  13.3600  13.7337  13.7577  14.2917  14.3518  14.4945
    14.5896  14.9280

     occupation numbers 
     1.0000   1.0000   1.0000   1.0000   1.0000   1.0000   1.0000   1.0000
     1.0000   1.0000   1.0000   1.0000   1.0000   1.0000   1.0000   1.0000
     1.0000   1.0000   1.0000   1.0000   1.0000   1.0000   1.0000   1.0000
     1.0000   1.0000   1.0000   1.0000   1.0000   1.0000   1.0000   1.0000
     1.0000   1.0000   1.0000   1.0000   1.0000   1.0000   1.0000   1.0000
     1.0000   1.0000   1.0000   1.0000   1.0000   1.0000   1.0000   1.0000
     1.0000   1.0000   1.0000   1.0000   1.0000   1.0000   1.0000   1.0000
     1.0000   1.0000   1.0000   1.0000   1.0000   1.0000   1.0000   1.0000
     1.0000   1.0000   1.0000   1.0000   1.0000   1.0000   1.0000   1.0000
     1.0000   1.0000   1.0000   1.0000   1.0000   1.0000   1.0000   1.0000
     1.0000   1.0000   1.0000   1.0000   1.0000   1.0000   1.0000   1.0000
     1.0000   1.0000   1.0000   1.0000   1.0000   1.0000   1.0000   1.0000
     1.0000   1.0000   1.0000   1.0000   1.0000   1.0000   1.0000   1.0000
     1.0000   1.0000   1.0000   1.0000   1.0000   1.0000   1.0000   1.0000
     1.0000   1.0000   1.0000   1.0000   0.0000   0.0000   0.0000   0.0000
     0.0000   0.0000   0.0000   0.0000   0.0000   0.0000   0.0000   0.0000
     0.0000   0.0000

          k = 0.0000 0.0000 0.9661 ( 37764 PWs)   bands (ev):

   -81.5475 -81.5471 -81.5459 -81.5454 -48.4487 -48.4483 -48.4471 -48.4466
   -47.5044 -47.5039 -47.5027 -47.5021 -46.8386 -46.8381 -46.8370 -46.8364
   -43.3272 -43.3271 -43.3190 -43.3190 -15.5175 -15.5144 -15.4276 -15.4271
   -15.3399 -15.3396 -15.3317 -15.3294 -15.2677 -15.2677 -15.2472 -15.2472
   -14.6205 -14.5942 -14.5483 -14.5244 -12.4154 -12.4022 -12.3287 -12.3164
   -12.2143 -12.1981 -12.1863 -12.1727 -11.9178 -11.9008 -11.7602 -11.7582
    -2.1020  -1.9874  -1.9366  -1.8733   0.0336   0.1154   0.1534   0.1700
     0.2529   0.2700   0.4332   0.5043   0.5235   0.5783   0.8612   0.8687
     1.6099   1.6833   1.8134   1.8966   2.2244   2.2607   2.2753   2.3364
     2.3502   2.4043   2.5829   2.6801   3.0028   3.0345   3.0584   3.0746
     3.2399   3.3323   3.3415   3.4381   3.9203   3.9545   3.9746   4.0265
     4.1384   4.2981   4.3358   4.3853   4.4360   4.5315   4.7863   4.8527
     4.9528   5.0074   5.0781   5.0893   5.1086   5.2034   5.3978   5.4223
     6.0086   6.0909   6.1092   6.1438   6.1806   6.2263   6.2319   6.2646
     6.3798   6.3959   6.5616   6.5672  11.4671  11.9901  12.4564  12.7388
    13.1150  13.1711  13.3553  13.4627  13.7878  14.1608  14.2985  14.3859
    14.5423  14.7194

     occupation numbers 
     1.0000   1.0000   1.0000   1.0000   1.0000   1.0000   1.0000   1.0000
     1.0000   1.0000   1.0000   1.0000   1.0000   1.0000   1.0000   1.0000
     1.0000   1.0000   1.0000   1.0000   1.0000   1.0000   1.0000   1.0000
     1.0000   1.0000   1.0000   1.0000   1.0000   1.0000   1.0000   1.0000
     1.0000   1.0000   1.0000   1.0000   1.0000   1.0000   1.0000   1.0000
     1.0000   1.0000   1.0000   1.0000   1.0000   1.0000   1.0000   1.0000
     1.0000   1.0000   1.0000   1.0000   1.0000   1.0000   1.0000   1.0000
     1.0000   1.0000   1.0000   1.0000   1.0000   1.0000   1.0000   1.0000
     1.0000   1.0000   1.0000   1.0000   1.0000   1.0000   1.0000   1.0000
     1.0000   1.0000   1.0000   1.0000   1.0000   1.0000   1.0000   1.0000
     1.0000   1.0000   1.0000   1.0000   1.0000   1.0000   1.0000   1.0000
     1.0000   1.0000   1.0000   1.0000   1.0000   1.0000   1.0000   1.0000
     1.0000   1.0000   1.0000   1.0000   1.0000   1.0000   1.0000   1.0000
     1.0000   1.0000   1.0000   1.0000   1.0000   1.0000   1.0000   1.0000
     1.0000   1.0000   1.0000   1.0000   0.0000   0.0000   0.0000   0.0000
     0.0000   0.0000   0.0000   0.0000   0.0000   0.0000   0.0000   0.0000
     0.0000   0.0000

          k = 0.0000 0.2470 0.0000 ( 37673 PWs)   bands (ev):

   -81.5475 -81.5471 -81.5459 -81.5454 -48.4489 -48.4481 -48.4473 -48.4464
   -47.5044 -47.5039 -47.5027 -47.5021 -46.8387 -46.8380 -46.8370 -46.8363
   -43.3268 -43.3267 -43.3194 -43.3194 -15.5376 -15.5254 -15.3841 -15.3795
   -15.3435 -15.3419 -15.3160 -15.3139 -15.2868 -15.2842 -15.2503 -15.2503
   -14.8560 -14.7050 -14.5444 -14.4421 -12.3031 -12.3009 -12.2659 -12.2570
   -12.2503 -12.2354 -12.1597 -12.1098 -11.8508 -11.8319 -11.8198 -11.7816
    -2.3362  -1.9930  -1.7994  -1.7833  -0.5958  -0.3141  -0.2067  -0.0947
     0.1325   0.2069   0.3988   0.4587   0.5432   0.5704   0.5868   0.8224
     1.7320   1.8872   2.1655   2.1909   2.2861   2.4648   2.4660   2.5665
     2.6542   2.7310   2.8759   3.0182   3.0322   3.0505   3.1828   3.3924
     3.4143   3.4259   3.4695   3.5053   3.6264   3.7012   3.7886   3.9008
     3.9204   4.0228   4.1278   4.3451   4.4217   4.5050   4.7069   4.8217
     4.9385   5.0261   5.0921   5.1605   5.3019   5.4622   5.4628   5.5083
     5.5349   5.7041   6.0236   6.0547   6.1377   6.1741   6.1951   6.3417
     6.3534   6.6404   6.6825   6.6845   9.9561  11.8233  12.1681  12.4751
    12.9649  13.6196  13.7281  14.2420  14.6418  14.6762  14.7738  14.8437
    14.8670  14.9359

     occupation numbers 
     1.0000   1.0000   1.0000   1.0000   1.0000   1.0000   1.0000   1.0000
     1.0000   1.0000   1.0000   1.0000   1.0000   1.0000   1.0000   1.0000
     1.0000   1.0000   1.0000   1.0000   1.0000   1.0000   1.0000   1.0000
     1.0000   1.0000   1.0000   1.0000   1.0000   1.0000   1.0000   1.0000
     1.0000   1.0000   1.0000   1.0000   1.0000   1.0000   1.0000   1.0000
     1.0000   1.0000   1.0000   1.0000   1.0000   1.0000   1.0000   1.0000
     1.0000   1.0000   1.0000   1.0000   1.0000   1.0000   1.0000   1.0000
     1.0000   1.0000   1.0000   1.0000   1.0000   1.0000   1.0000   1.0000
     1.0000   1.0000   1.0000   1.0000   1.0000   1.0000   1.0000   1.0000
     1.0000   1.0000   1.0000   1.0000   1.0000   1.0000   1.0000   1.0000
     1.0000   1.0000   1.0000   1.0000   1.0000   1.0000   1.0000   1.0000
     1.0000   1.0000   1.0000   1.0000   1.0000   1.0000   1.0000   1.0000
     1.0000   1.0000   1.0000   1.0000   1.0000   1.0000   1.0000   1.0000
     1.0000   1.0000   1.0000   1.0000   1.0000   1.0000   1.0000   1.0000
     1.0000   1.0000   1.0000   1.0000   0.0000   0.0000   0.0000   0.0000
     0.0000   0.0000   0.0000   0.0000   0.0000   0.0000   0.0000   0.0000
     0.0000   0.0000

          k = 0.0000 0.2470 0.2415 ( 37679 PWs)   bands (ev):

   -81.5475 -81.5471 -81.5459 -81.5454 -48.4489 -48.4481 -48.4472 -48.4465
   -47.5044 -47.5039 -47.5027 -47.5021 -46.8387 -46.8380 -46.8370 -46.8363
   -43.3268 -43.3267 -43.3194 -43.3194 -15.5306 -15.5194 -15.3900 -15.3857
   -15.3442 -15.3436 -15.3267 -15.3216 -15.2828 -15.2817 -15.2506 -15.2505
   -14.8239 -14.6832 -14.5489 -14.4524 -12.3136 -12.3097 -12.2725 -12.2636
   -12.2521 -12.2362 -12.1643 -12.1134 -11.8673 -11.8252 -11.8166 -11.7812
    -2.3184  -1.9925  -1.8097  -1.7729  -0.5336  -0.2881  -0.1439  -0.0355
     0.1305   0.2226   0.4061   0.4729   0.5326   0.5657   0.5673   0.8023
     1.7273   1.8657   2.1387   2.2012   2.2328   2.4254   2.4287   2.5243
     2.6323   2.7893   2.8450   2.9452   2.9870   3.0671   3.2402   3.2920
     3.3836   3.4363   3.4995   3.5712   3.6180   3.7414   3.7692   3.8623
     3.9330   4.0645   4.1512   4.3557   4.4439   4.5142   4.7010   4.8097
     4.9281   4.9926   5.0933   5.1849   5.3071   5.4210   5.4553   5.4685
     5.5652   5.7185   6.0510   6.0927   6.1423   6.1914   6.2132   6.3112
     6.3423   6.6182   6.6748   6.6857  10.1026  11.8757  12.2594  12.4984
    12.9961  13.4562  13.9529  13.9800  14.5069  14.5348  14.6307  14.6940
    14.9999  15.0151

     occupation numbers 
     1.0000   1.0000   1.0000   1.0000   1.0000   1.0000   1.0000   1.0000
     1.0000   1.0000   1.0000   1.0000   1.0000   1.0000   1.0000   1.0000
     1.0000   1.0000   1.0000   1.0000   1.0000   1.0000   1.0000   1.0000
     1.0000   1.0000   1.0000   1.0000   1.0000   1.0000   1.0000   1.0000
     1.0000   1.0000   1.0000   1.0000   1.0000   1.0000   1.0000   1.0000
     1.0000   1.0000   1.0000   1.0000   1.0000   1.0000   1.0000   1.0000
     1.0000   1.0000   1.0000   1.0000   1.0000   1.0000   1.0000   1.0000
     1.0000   1.0000   1.0000   1.0000   1.0000   1.0000   1.0000   1.0000
     1.0000   1.0000   1.0000   1.0000   1.0000   1.0000   1.0000   1.0000
     1.0000   1.0000   1.0000   1.0000   1.0000   1.0000   1.0000   1.0000
     1.0000   1.0000   1.0000   1.0000   1.0000   1.0000   1.0000   1.0000
     1.0000   1.0000   1.0000   1.0000   1.0000   1.0000   1.0000   1.0000
     1.0000   1.0000   1.0000   1.0000   1.0000   1.0000   1.0000   1.0000
     1.0000   1.0000   1.0000   1.0000   1.0000   1.0000   1.0000   1.0000
     1.0000   1.0000   1.0000   1.0000   0.0000   0.0000   0.0000   0.0000
     0.0000   0.0000   0.0000   0.0000   0.0000   0.0000   0.0000   0.0000
     0.0000   0.0000

          k = 0.0000 0.2470 0.4830 ( 37698 PWs)   bands (ev):

   -81.5475 -81.5471 -81.5459 -81.5454 -48.4488 -48.4482 -48.4472 -48.4465
   -47.5044 -47.5039 -47.5027 -47.5021 -46.8386 -46.8381 -46.8370 -46.8363
   -43.3268 -43.3267 -43.3194 -43.3193 -15.5153 -15.5061 -15.4081 -15.4039
   -15.3471 -15.3452 -15.3341 -15.3291 -15.2796 -15.2793 -15.2515 -15.2513
   -14.7474 -14.6333 -14.5591 -14.4794 -12.3485 -12.3271 -12.3158 -12.2587
   -12.2497 -12.2404 -12.1712 -12.1257 -11.8899 -11.8438 -11.7954 -11.7758
    -2.2657  -1.9852  -1.8318  -1.7754  -0.3485  -0.2084   0.0034   0.0965
     0.1529   0.2603   0.4206   0.4767   0.5123   0.5635   0.5839   0.7463
     1.7040   1.8210   2.0317   2.1239   2.2205   2.3510   2.3516   2.4415
     2.6004   2.7505   2.8163   2.8682   2.9646   3.0299   3.0927   3.2079
     3.3515   3.3525   3.5120   3.6608   3.6950   3.7954   3.8340   3.8519
     3.9870   4.1398   4.1484   4.3839   4.5037   4.5475   4.6826   4.7904
     4.9082   4.9330   5.0968   5.1983   5.3220   5.3399   5.4219   5.4319
     5.6429   5.7632   6.0975   6.1555   6.1688   6.2250   6.2486   6.2703
     6.2965   6.5661   6.6554   6.6795  10.4924  12.0229  12.4415  12.6037
    13.1177  13.3344  13.5070  14.1668  14.2233  14.2292  14.4164  14.5794
    14.8028  15.0182

     occupation numbers 
     1.0000   1.0000   1.0000   1.0000   1.0000   1.0000   1.0000   1.0000
     1.0000   1.0000   1.0000   1.0000   1.0000   1.0000   1.0000   1.0000
     1.0000   1.0000   1.0000   1.0000   1.0000   1.0000   1.0000   1.0000
     1.0000   1.0000   1.0000   1.0000   1.0000   1.0000   1.0000   1.0000
     1.0000   1.0000   1.0000   1.0000   1.0000   1.0000   1.0000   1.0000
     1.0000   1.0000   1.0000   1.0000   1.0000   1.0000   1.0000   1.0000
     1.0000   1.0000   1.0000   1.0000   1.0000   1.0000   1.0000   1.0000
     1.0000   1.0000   1.0000   1.0000   1.0000   1.0000   1.0000   1.0000
     1.0000   1.0000   1.0000   1.0000   1.0000   1.0000   1.0000   1.0000
     1.0000   1.0000   1.0000   1.0000   1.0000   1.0000   1.0000   1.0000
     1.0000   1.0000   1.0000   1.0000   1.0000   1.0000   1.0000   1.0000
     1.0000   1.0000   1.0000   1.0000   1.0000   1.0000   1.0000   1.0000
     1.0000   1.0000   1.0000   1.0000   1.0000   1.0000   1.0000   1.0000
     1.0000   1.0000   1.0000   1.0000   1.0000   1.0000   1.0000   1.0000
     1.0000   1.0000   1.0000   1.0000   0.0000   0.0000   0.0000   0.0000
     0.0000   0.0000   0.0000   0.0000   0.0000   0.0000   0.0000   0.0000
     0.0000   0.0000

          k = 0.0000 0.2470 0.7246 ( 37707 PWs)   bands (ev):

   -81.5475 -81.5471 -81.5459 -81.5454 -48.4488 -48.4482 -48.4471 -48.4466
   -47.5044 -47.5039 -47.5027 -47.5021 -46.8386 -46.8381 -46.8370 -46.8363
   -43.3268 -43.3267 -43.3194 -43.3193 -15.5064 -15.4993 -15.4210 -15.4189
   -15.3459 -15.3448 -15.3335 -15.3292 -15.2788 -15.2787 -15.2528 -15.2526
   -14.6644 -14.5905 -14.5645 -14.5102 -12.3915 -12.3655 -12.3397 -12.2951
   -12.2318 -12.2203 -12.1792 -12.1459 -11.9046 -11.8696 -11.7773 -11.7678
    -2.1814  -1.9620  -1.8793  -1.8126  -0.0883  -0.0732   0.0989   0.1567
     0.2878   0.3036   0.4025   0.4198   0.5209   0.6470   0.7006   0.7157
     1.6413   1.7904   1.8501   1.9831   2.2281   2.2842   2.3064   2.3823
     2.5320   2.5527   2.6419   2.7730   2.9685   3.0108   3.0761   3.1544
     3.2151   3.3409   3.4279   3.5735   3.8281   3.8957   3.9427   3.9646
     4.0349   4.1764   4.2384   4.3550   4.5477   4.5569   4.6755   4.8206
     4.8740   4.8978   5.1039   5.1724   5.2719   5.3388   5.3960   5.4166
     5.7584   5.8438   6.1365   6.1466   6.1712   6.1947   6.2368   6.2935
     6.3469   6.5032   6.6355   6.6634  11.0225  12.2523  12.4382  12.8732
    13.0832  13.2684  13.3817  13.7669  13.8287  14.2707  14.3587  14.4992
    14.6115  14.8891

     occupation numbers 
     1.0000   1.0000   1.0000   1.0000   1.0000   1.0000   1.0000   1.0000
     1.0000   1.0000   1.0000   1.0000   1.0000   1.0000   1.0000   1.0000
     1.0000   1.0000   1.0000   1.0000   1.0000   1.0000   1.0000   1.0000
     1.0000   1.0000   1.0000   1.0000   1.0000   1.0000   1.0000   1.0000
     1.0000   1.0000   1.0000   1.0000   1.0000   1.0000   1.0000   1.0000
     1.0000   1.0000   1.0000   1.0000   1.0000   1.0000   1.0000   1.0000
     1.0000   1.0000   1.0000   1.0000   1.0000   1.0000   1.0000   1.0000
     1.0000   1.0000   1.0000   1.0000   1.0000   1.0000   1.0000   1.0000
     1.0000   1.0000   1.0000   1.0000   1.0000   1.0000   1.0000   1.0000
     1.0000   1.0000   1.0000   1.0000   1.0000   1.0000   1.0000   1.0000
     1.0000   1.0000   1.0000   1.0000   1.0000   1.0000   1.0000   1.0000
     1.0000   1.0000   1.0000   1.0000   1.0000   1.0000   1.0000   1.0000
     1.0000   1.0000   1.0000   1.0000   1.0000   1.0000   1.0000   1.0000
     1.0000   1.0000   1.0000   1.0000   1.0000   1.0000   1.0000   1.0000
     1.0000   1.0000   1.0000   1.0000   0.0000   0.0000   0.0000   0.0000
     0.0000   0.0000   0.0000   0.0000   0.0000   0.0000   0.0000   0.0000
     0.0000   0.0000

          k = 0.0000 0.2470 0.9661 ( 37706 PWs)   bands (ev):

   -81.5475 -81.5471 -81.5459 -81.5454 -48.4487 -48.4483 -48.4471 -48.4466
   -47.5044 -47.5039 -47.5027 -47.5021 -46.8386 -46.8381 -46.8370 -46.8364
   -43.3268 -43.3267 -43.3194 -43.3193 -15.5070 -15.5042 -15.4208 -15.4205
   -15.3444 -15.3442 -15.3290 -15.3270 -15.2789 -15.2789 -15.2538 -15.2537
   -14.6127 -14.5889 -14.5480 -14.5265 -12.4150 -12.4046 -12.3414 -12.3263
   -12.2116 -12.1959 -12.1927 -12.1704 -11.9053 -11.8924 -11.7662 -11.7634
    -2.0749  -1.9651  -1.9210  -1.8680   0.0307   0.0983   0.1652   0.2159
     0.2742   0.2804   0.4373   0.4711   0.5560   0.5748   0.8665   0.8674
     1.5774   1.6524   1.7828   1.8391   2.1972   2.2502   2.2864   2.3331
     2.3844   2.4426   2.5932   2.6496   2.9743   3.0286   3.0804   3.1107
     3.2055   3.2996   3.3977   3.4708   3.9002   3.9374   3.9797   4.0263
     4.1191   4.2490   4.3342   4.3679   4.4741   4.4861   4.7397   4.8114
     4.8791   4.8969   5.1177   5.1415   5.2640   5.3117   5.3908   5.4091
     5.8996   5.9498   6.0427   6.0611   6.1738   6.1935   6.2760   6.2975
     6.4115   6.4540   6.6293   6.6423  11.5964  12.1242  12.5491  12.8304
    13.1344  13.2223  13.3903  13.5148  13.8183  14.1870  14.2684  14.3695
    14.5750  14.7306

     occupation numbers 
     1.0000   1.0000   1.0000   1.0000   1.0000   1.0000   1.0000   1.0000
     1.0000   1.0000   1.0000   1.0000   1.0000   1.0000   1.0000   1.0000
     1.0000   1.0000   1.0000   1.0000   1.0000   1.0000   1.0000   1.0000
     1.0000   1.0000   1.0000   1.0000   1.0000   1.0000   1.0000   1.0000
     1.0000   1.0000   1.0000   1.0000   1.0000   1.0000   1.0000   1.0000
     1.0000   1.0000   1.0000   1.0000   1.0000   1.0000   1.0000   1.0000
     1.0000   1.0000   1.0000   1.0000   1.0000   1.0000   1.0000   1.0000
     1.0000   1.0000   1.0000   1.0000   1.0000   1.0000   1.0000   1.0000
     1.0000   1.0000   1.0000   1.0000   1.0000   1.0000   1.0000   1.0000
     1.0000   1.0000   1.0000   1.0000   1.0000   1.0000   1.0000   1.0000
     1.0000   1.0000   1.0000   1.0000   1.0000   1.0000   1.0000   1.0000
     1.0000   1.0000   1.0000   1.0000   1.0000   1.0000   1.0000   1.0000
     1.0000   1.0000   1.0000   1.0000   1.0000   1.0000   1.0000   1.0000
     1.0000   1.0000   1.0000   1.0000   1.0000   1.0000   1.0000   1.0000
     1.0000   1.0000   1.0000   1.0000   0.0000   0.0000   0.0000   0.0000
     0.0000   0.0000   0.0000   0.0000   0.0000   0.0000   0.0000   0.0000
     0.0000   0.0000

          k = 0.0000 0.4940 0.0000 ( 37685 PWs)   bands (ev):

   -81.5475 -81.5471 -81.5459 -81.5454 -48.4488 -48.4482 -48.4472 -48.4465
   -47.5044 -47.5039 -47.5027 -47.5021 -46.8386 -46.8381 -46.8370 -46.8363
   -43.3257 -43.3257 -43.3205 -43.3204 -15.5063 -15.4977 -15.3761 -15.3725
   -15.3590 -15.3587 -15.3262 -15.3228 -15.3061 -15.3044 -15.2608 -15.2606
   -14.7786 -14.6652 -14.5570 -14.4978 -12.2995 -12.2917 -12.2697 -12.2603
   -12.2530 -12.2439 -12.1942 -12.1449 -11.8228 -11.8223 -11.8069 -11.7870
    -2.2413  -1.9283  -1.8684  -1.7769  -0.4793  -0.2563  -0.1698  -0.1255
     0.2115   0.2221   0.3149   0.4190   0.5598   0.6271   0.6380   0.7655
     1.7850   1.8805   1.9694   2.2415   2.2896   2.3051   2.3076   2.5421
     2.6029   2.7858   2.8918   2.9091   2.9892   3.0804   3.2159   3.4225
     3.4510   3.4941   3.5363   3.5431   3.6456   3.7013   3.7651   3.9255
     3.9763   4.0623   4.0670   4.2662   4.3350   4.4839   4.6312   4.7258
     4.9032   4.9227   4.9876   5.0789   5.3602   5.4814   5.5313   5.5819
     5.6158   5.6725   6.0319   6.0526   6.1222   6.1935   6.1965   6.2378
     6.2774   6.7045   6.7065   6.7319  10.4063  12.0753  12.2091  12.4425
    13.0113  13.5436  13.8261  14.2572  14.5589  14.6374  14.9696  14.9865
    14.9924  15.0499

     occupation numbers 
     1.0000   1.0000   1.0000   1.0000   1.0000   1.0000   1.0000   1.0000
     1.0000   1.0000   1.0000   1.0000   1.0000   1.0000   1.0000   1.0000
     1.0000   1.0000   1.0000   1.0000   1.0000   1.0000   1.0000   1.0000
     1.0000   1.0000   1.0000   1.0000   1.0000   1.0000   1.0000   1.0000
     1.0000   1.0000   1.0000   1.0000   1.0000   1.0000   1.0000   1.0000
     1.0000   1.0000   1.0000   1.0000   1.0000   1.0000   1.0000   1.0000
     1.0000   1.0000   1.0000   1.0000   1.0000   1.0000   1.0000   1.0000
     1.0000   1.0000   1.0000   1.0000   1.0000   1.0000   1.0000   1.0000
     1.0000   1.0000   1.0000   1.0000   1.0000   1.0000   1.0000   1.0000
     1.0000   1.0000   1.0000   1.0000   1.0000   1.0000   1.0000   1.0000
     1.0000   1.0000   1.0000   1.0000   1.0000   1.0000   1.0000   1.0000
     1.0000   1.0000   1.0000   1.0000   1.0000   1.0000   1.0000   1.0000
     1.0000   1.0000   1.0000   1.0000   1.0000   1.0000   1.0000   1.0000
     1.0000   1.0000   1.0000   1.0000   1.0000   1.0000   1.0000   1.0000
     1.0000   1.0000   1.0000   1.0000   0.0000   0.0000   0.0000   0.0000
     0.0000   0.0000   0.0000   0.0000   0.0000   0.0000   0.0000   0.0000
     0.0000   0.0000

          k = 0.0000 0.4940 0.2415 ( 37685 PWs)   bands (ev):

   -81.5475 -81.5471 -81.5459 -81.5454 -48.4488 -48.4482 -48.4472 -48.4465
   -47.5044 -47.5039 -47.5027 -47.5021 -46.8386 -46.8381 -46.8370 -46.8363
   -43.3257 -43.3256 -43.3205 -43.3204 -15.5002 -15.4923 -15.3836 -15.3802
   -15.3587 -15.3577 -15.3285 -15.3247 -15.3047 -15.3036 -15.2618 -15.2615
   -14.7558 -14.6496 -14.5587 -14.5025 -12.3191 -12.2970 -12.2867 -12.2685
   -12.2459 -12.2341 -12.2048 -12.1424 -11.8370 -11.8146 -11.8111 -11.7851
    -2.2246  -1.9273  -1.8637  -1.7754  -0.4208  -0.2300  -0.1143  -0.0649
     0.2080   0.2252   0.3419   0.4355   0.5456   0.6196   0.6227   0.7477
     1.7711   1.8447   1.9433   2.1698   2.2721   2.2740   2.3313   2.5058
     2.6055   2.7988   2.8871   2.8960   2.9714   3.0284   3.3104   3.3430
     3.4263   3.4310   3.5392   3.5818   3.6442   3.7184   3.8024   3.9050
     3.9834   4.0662   4.0936   4.2782   4.3531   4.4891   4.6254   4.7221
     4.8912   4.8923   5.0255   5.0862   5.3657   5.4808   5.5282   5.5467
     5.6102   5.6744   6.0299   6.0453   6.1450   6.1886   6.2032   6.2726
     6.2740   6.6763   6.7235   6.7269  10.5365  12.1277  12.2672  12.5412
    13.0359  13.5104  13.9135  13.9765  14.5481  14.6041  14.7608  14.8881
    15.0278  15.0545

     occupation numbers 
     1.0000   1.0000   1.0000   1.0000   1.0000   1.0000   1.0000   1.0000
     1.0000   1.0000   1.0000   1.0000   1.0000   1.0000   1.0000   1.0000
     1.0000   1.0000   1.0000   1.0000   1.0000   1.0000   1.0000   1.0000
     1.0000   1.0000   1.0000   1.0000   1.0000   1.0000   1.0000   1.0000
     1.0000   1.0000   1.0000   1.0000   1.0000   1.0000   1.0000   1.0000
     1.0000   1.0000   1.0000   1.0000   1.0000   1.0000   1.0000   1.0000
     1.0000   1.0000   1.0000   1.0000   1.0000   1.0000   1.0000   1.0000
     1.0000   1.0000   1.0000   1.0000   1.0000   1.0000   1.0000   1.0000
     1.0000   1.0000   1.0000   1.0000   1.0000   1.0000   1.0000   1.0000
     1.0000   1.0000   1.0000   1.0000   1.0000   1.0000   1.0000   1.0000
     1.0000   1.0000   1.0000   1.0000   1.0000   1.0000   1.0000   1.0000
     1.0000   1.0000   1.0000   1.0000   1.0000   1.0000   1.0000   1.0000
     1.0000   1.0000   1.0000   1.0000   1.0000   1.0000   1.0000   1.0000
     1.0000   1.0000   1.0000   1.0000   1.0000   1.0000   1.0000   1.0000
     1.0000   1.0000   1.0000   1.0000   0.0000   0.0000   0.0000   0.0000
[...]
     atom    4 type  2   force =     0.00000000    0.00000000    0.00000000
     atom    5 type  1   force =    -0.04831650    0.00000000    0.04819048
     atom    6 type  1   force =     0.04830587   -0.00000000    0.04819918
     atom    7 type  1   force =     0.04831650   -0.00000000   -0.04819048
     atom    8 type  1   force =    -0.04830587   -0.00000000   -0.04819918
     atom    9 type  4   force =    -0.04179758    0.00000000   -0.03069749
     atom   10 type  4   force =     0.04186056    0.00000000   -0.03075783
     atom   11 type  4   force =     0.04179758    0.00000000    0.03069749
     atom   12 type  4   force =    -0.04186056    0.00000000    0.03075783
     atom   13 type  3   force =     0.14079506    0.00000000   -1.51133029
     atom   14 type  3   force =    -0.14078560    0.00000000   -1.51134016
     atom   15 type  3   force =    -0.14079506    0.00000000    1.51133029
     atom   16 type  3   force =     0.14078560    0.00000000    1.51134016
     atom   17 type  3   force =     1.23865360    0.00000000   -0.62140647
     atom   18 type  3   force =    -1.23868689    0.00000000   -0.62145858
     atom   19 type  3   force =    -1.23865360    0.00000000    0.62140647
     atom   20 type  3   force =     1.23868689    0.00000000    0.62145858
     atom   21 type  3   force =    -0.69001807   -0.98806845    0.70976230
     atom   22 type  3   force =     0.69005020    0.98807577    0.70974826
     atom   23 type  3   force =     0.69001807   -0.98806845   -0.70976230
     atom   24 type  3   force =    -0.69005020    0.98807577   -0.70974826
     atom   25 type  3   force =     0.69001807    0.98806845   -0.70976230
     atom   26 type  3   force =    -0.69005020   -0.98807577   -0.70974826
     atom   27 type  3   force =    -0.69001807    0.98806845    0.70976230
     atom   28 type  3   force =     0.69005020   -0.98807577    0.70974826
     The ionic contribution  to forces
     atom    1 type  2   force =     0.00043484   -0.00007198    0.00019306
     atom    2 type  2   force =    -0.00023464    0.00019235    0.00005125
     atom    3 type  2   force =     0.00054913    0.00019089    0.00025420
     atom    4 type  2   force =    -0.00012035   -0.00007345   -0.00000988
     atom    5 type  1   force =     3.25002708   -0.00076173   -0.99951921
     atom    6 type  1   force =    -3.24809202    0.00074590   -0.99913996
     atom    7 type  1   force =    -3.25045772    0.00074590    0.99958421
     atom    8 type  1   force =     3.24819977   -0.00076173    0.99900166
     atom    9 type  4   force =    -1.38560982   -0.00017514    1.60335181
     atom   10 type  4   force =     1.38656682    0.00016321    1.60272538
     atom   11 type  4   force =     1.38572979    0.00016321   -1.60343345
     atom   12 type  4   force =    -1.38670471   -0.00017514   -1.60268762
     atom   13 type  3   force =    -3.48039676   -0.00023712    1.86072900
     atom   14 type  3   force =     3.48114103    0.00018321    1.86125073
     atom   15 type  3   force =     3.48063506    0.00018321   -1.86067879
     atom   16 type  3   force =    -3.48129665   -0.00023711   -1.86123202
     atom   17 type  3   force =    -1.59688589   -0.00023596    2.15935934
     atom   18 type  3   force =     1.59806354    0.00017823    2.15947496
     atom   19 type  3   force =     1.59667841    0.00017823   -2.15942451
     atom   20 type  3   force =    -1.59773174   -0.00023596   -2.15941780
     atom   21 type  3   force =     0.52229725    2.41226535   -1.56947208
     atom   22 type  3   force =    -0.52168446   -2.41205248   -1.56972942
     atom   23 type  3   force =    -0.52251426    2.41264123    1.56905360
     atom   24 type  3   force =     0.52165388   -2.41255494    1.56951233
     atom   25 type  3   force =    -0.52239828   -2.41221387    1.56926828
     atom   26 type  3   force =     0.52155031    2.41214807    1.56971703
     atom   27 type  3   force =     0.52240081   -2.41267221   -1.56926738
     atom   28 type  3   force =    -0.52180043    2.41247984   -1.56951474
     The local contribution  to forces
     atom    1 type  2   force =    -0.00000000   -0.00000000    0.00000000
     atom    2 type  2   force =    -0.00498079   -0.00015287   -0.00226203
     atom    3 type  2   force =     0.00007822   -0.00190520    0.00004189
     atom    4 type  2   force =    -0.00490258   -0.00175234   -0.00230392
     atom    5 type  1   force =    -3.21082561   -0.00890080    0.94502108
     atom    6 type  1   force =     3.18759287   -0.00222520    0.94445608
     atom    7 type  1   force =     3.18778373   -0.00222520   -0.95576491
     atom    8 type  1   force =    -3.20687048   -0.00890079   -0.95536513
     atom    9 type  4   force =     1.36660722   -0.00001967   -1.57031771
     atom   10 type  4   force =    -1.36760650   -0.00000492   -1.56957047
     atom   11 type  4   force =    -1.36667273   -0.00000492    1.57035958
     atom   12 type  4   force =     1.36759956   -0.00001965    1.56973977
     atom   13 type  3   force =     3.34280875   -0.00206626   -0.34391060
     atom   14 type  3   force =    -3.34851144   -0.00051657   -0.34461929
     atom   15 type  3   force =    -3.34769017   -0.00051656    0.34167726
     atom   16 type  3   force =     3.34338891   -0.00206628    0.34193673
     atom   17 type  3   force =     0.38869171   -0.00205482   -1.56108257
     atom   18 type  3   force =    -0.39405879   -0.00051371   -1.56133352
     atom   19 type  3   force =    -0.39291771   -0.00051371    1.55895144
     atom   20 type  3   force =     0.38959098   -0.00205484    1.55867681
     atom   21 type  3   force =     0.17791818   -1.39058288    0.85180533
     atom   22 type  3   force =    -0.18385169    1.38852129    0.85217026
     atom   23 type  3   force =    -0.18322601   -1.38969789   -0.85422301
     atom   24 type  3   force =     0.17854073    1.38711361   -0.85426624
     atom   25 type  3   force =    -0.18317563    1.38883037   -0.85415810
     atom   26 type  3   force =     0.17874222   -1.39058365   -0.85452592
     atom   27 type  3   force =     0.17771667    1.38711286    0.85154565
     atom   28 type  3   force =    -0.18390207   -1.38938880    0.85223517
     The core correction contribution to forces
     atom    1 type  2   force =     0.00000000    0.00000000    0.00000000
     atom    2 type  2   force =     0.00000000    0.00000000    0.00000000
     atom    3 type  2   force =     0.00000000    0.00000000    0.00000000
     atom    4 type  2   force =     0.00000000    0.00000000    0.00000000
     atom    5 type  1   force =     0.00370495    0.00026868   -0.00154993
     atom    6 type  1   force =    -0.00296991    0.00006716   -0.00156236
     atom    7 type  1   force =    -0.00289708    0.00006716    0.00195461
     atom    8 type  1   force =     0.00363119    0.00026868    0.00194105
     atom    9 type  4   force =     0.00425820    0.00000602    0.00068730
     atom   10 type  4   force =    -0.00424914    0.00000150    0.00069401
     atom   11 type  4   force =    -0.00424334    0.00000150   -0.00067948
     atom   12 type  4   force =     0.00426469    0.00000602   -0.00068469
     atom   13 type  3   force =    -0.00188759   -0.00000113    0.01279642
     atom   14 type  3   force =     0.00188339   -0.00000028    0.01279659
     atom   15 type  3   force =     0.00188308   -0.00000028   -0.01280138
     atom   16 type  3   force =    -0.00188703   -0.00000113   -0.01279993
     atom   17 type  3   force =    -0.01071550   -0.00000100    0.00622877
     atom   18 type  3   force =     0.01070607   -0.00000025    0.00622758
     atom   19 type  3   force =     0.01070750   -0.00000025   -0.00622914
     atom   20 type  3   force =    -0.01071532   -0.00000100   -0.00623068
     atom   21 type  3   force =     0.00575220    0.00784352   -0.00627497
     atom   22 type  3   force =    -0.00575734   -0.00784821   -0.00627645
     atom   23 type  3   force =    -0.00575597    0.00784663    0.00627442
     atom   24 type  3   force =     0.00575316   -0.00784824    0.00627306
     atom   25 type  3   force =    -0.00575626   -0.00784785    0.00627453
     atom   26 type  3   force =     0.00575197    0.00784337    0.00627263
     atom   27 type  3   force =     0.00575339   -0.00784840   -0.00627540
     atom   28 type  3   force =    -0.00575704    0.00784699   -0.00627635
     The Hubbard contrib.    to forces
     atom    1 type  2   force =     0.00000000    0.00000000    0.00000000
     atom    2 type  2   force =     0.00000000    0.00000000    0.00000000
     atom    3 type  2   force =     0.00000000    0.00000000    0.00000000
     atom    4 type  2   force =     0.00000000    0.00000000    0.00000000
     atom    5 type  1   force =     0.00000000    0.00000000    0.00000000
     atom    6 type  1   force =     0.00000000    0.00000000    0.00000000
     atom    7 type  1   force =     0.00000000    0.00000000    0.00000000
     atom    8 type  1   force =     0.00000000    0.00000000    0.00000000
     atom    9 type  4   force =     0.00000000    0.00000000    0.00000000
     atom   10 type  4   force =     0.00000000    0.00000000    0.00000000
     atom   11 type  4   force =     0.00000000    0.00000000    0.00000000
     atom   12 type  4   force =     0.00000000    0.00000000    0.00000000
     atom   13 type  3   force =     0.00000000    0.00000000    0.00000000
     atom   14 type  3   force =     0.00000000    0.00000000    0.00000000
     atom   15 type  3   force =     0.00000000    0.00000000    0.00000000
     atom   16 type  3   force =     0.00000000    0.00000000    0.00000000
     atom   17 type  3   force =     0.00000000    0.00000000    0.00000000
     atom   18 type  3   force =     0.00000000    0.00000000    0.00000000
     atom   19 type  3   force =     0.00000000    0.00000000    0.00000000
     atom   20 type  3   force =     0.00000000    0.00000000    0.00000000
     atom   21 type  3   force =     0.00000000    0.00000000    0.00000000
     atom   22 type  3   force =     0.00000000    0.00000000    0.00000000
     atom   23 type  3   force =     0.00000000    0.00000000    0.00000000
     atom   24 type  3   force =     0.00000000    0.00000000    0.00000000
     atom   25 type  3   force =     0.00000000    0.00000000    0.00000000
     atom   26 type  3   force =     0.00000000    0.00000000    0.00000000
     atom   27 type  3   force =     0.00000000    0.00000000    0.00000000
     atom   28 type  3   force =     0.00000000    0.00000000    0.00000000
     The SCF correction term to forces
     atom    1 type  2   force =     0.00000000   -0.00000000    0.00000000
     atom    2 type  2   force =    -0.00000001   -0.00000000   -0.00000000
     atom    3 type  2   force =     0.00000000   -0.00000000    0.00000000
     atom    4 type  2   force =    -0.00000001   -0.00000000   -0.00000000
     atom    5 type  1   force =    -0.00000405   -0.00000001    0.00000154
     atom    6 type  1   force =    -0.00000425   -0.00000000    0.00000095
     atom    7 type  1   force =     0.00000402   -0.00000000   -0.00000156
     atom    8 type  1   force =     0.00000421   -0.00000002   -0.00000097
     atom    9 type  4   force =    -0.00000213   -0.00000000    0.00000071
     atom   10 type  4   force =    -0.00000238    0.00000000   -0.00000070
     atom   11 type  4   force =     0.00000213    0.00000000   -0.00000071
     atom   12 type  4   force =     0.00000238   -0.00000000    0.00000070
     atom   13 type  3   force =    -0.00000383   -0.00000000   -0.00000212
     atom   14 type  3   force =    -0.00000579    0.00000000    0.00000401
     atom   15 type  3   force =     0.00000383    0.00000000    0.00000212
     atom   16 type  3   force =     0.00000578   -0.00000000   -0.00000401
     atom   17 type  3   force =     0.00000376   -0.00000000    0.00000156
     atom   18 type  3   force =     0.00000432    0.00000000   -0.00000249
     atom   19 type  3   force =    -0.00000376    0.00000000   -0.00000157
     atom   20 type  3   force =    -0.00000432   -0.00000000    0.00000248
     atom   21 type  3   force =    -0.00000258    0.00000623    0.00000354
     atom   22 type  3   force =    -0.00000162    0.00000614   -0.00000211
     atom   23 type  3   force =     0.00000258    0.00000623   -0.00000354
     atom   24 type  3   force =     0.00000161    0.00000614    0.00000211
     atom   25 type  3   force =     0.00000258   -0.00000623   -0.00000354
     atom   26 type  3   force =     0.00000161   -0.00000614    0.00000211
     atom   27 type  3   force =    -0.00000258   -0.00000624    0.00000354
     atom   28 type  3   force =    -0.00000162   -0.00000614   -0.00000211

     Total force =     0.191091     Total SCF correction =     0.000027


     Computing stress (Cartesian axis) and pressure


     negative rho (up, down):  0.000E+00 5.250E-04
          total   stress  (Ry/bohr**3)                   (kbar)     P=       16.63
  -0.00018365   0.00000000   0.00000003          -27.02        0.00        0.00
   0.00000000   0.00032596   0.00000000            0.00       47.95        0.00
   0.00000003   0.00000000   0.00019683            0.00        0.00       28.95

     kinetic stress (kbar)  31114.47      0.00      0.00
                                0.00  31065.46      0.00
                                0.00      0.00  31153.94

     local   stress (kbar)  -3968.41     -0.10      0.00
                               -0.10  -6409.23     -0.00
                                0.00     -0.00  -2118.44

     nonloc. stress (kbar)  -9307.12      0.00      0.00
                                0.00  -9391.79      0.00
                                0.00      0.00  -9247.30

     hartree stress (kbar)  14234.74     -0.00     -0.01
                               -0.00  15227.49      0.00
                               -0.01      0.00  13213.42

     exc-cor stress (kbar)  -3529.86      0.00      0.00
                                0.00  -3534.19     -0.00
                                0.00     -0.00  -3525.61

     corecor stress (kbar)  -3018.74     -0.00     -0.00
                               -0.00  -3004.79      0.00
                               -0.00      0.00  -3027.76

     ewald   stress (kbar) -25552.10      0.09      0.01
                                0.09 -23905.00      0.00
                                0.01      0.00 -26419.29

     hubbard stress (kbar)      0.00      0.00      0.00
                                0.00      0.00      0.00
                                0.00      0.00      0.00

     DFT-D   stress (kbar)      0.00      0.00      0.00
                                0.00      0.00      0.00
                                0.00      0.00      0.00

     XDM     stress (kbar)      0.00      0.00      0.00
                                0.00      0.00      0.00
                                0.00      0.00      0.00

     dft-nl  stress (kbar)      0.00      0.00      0.00
                                0.00      0.00      0.00
                                0.00      0.00      0.00

     TS-vdW  stress (kbar)      0.00      0.00      0.00
                                0.00      0.00      0.00
                                0.00      0.00      0.00



     init_run     :   1361.03s CPU   1624.48s WALL (       1 calls)
     electrons    : 127254.20s CPU 155022.90s WALL (       1 calls)
     forces       :    190.06s CPU    240.00s WALL (       1 calls)
     stress       :    625.76s CPU    792.58s WALL (       1 calls)

     Called by init_run:
     wfcinit      :   1343.02s CPU   1600.38s WALL (       1 calls)
     wfcinit:atom :      1.01s CPU      1.19s WALL (     184 calls)
     wfcinit:wfcr :   1336.28s CPU   1592.16s WALL (     184 calls)
     potinit      :      7.47s CPU      9.81s WALL (       1 calls)
     hinit0       :      6.96s CPU      9.19s WALL (       1 calls)

     Called by electrons:
     c_bands      : 107330.39s CPU 130411.06s WALL (      39 calls)
     sum_band     :  19617.28s CPU  24226.91s WALL (      39 calls)
     v_of_rho     :     87.95s CPU    105.33s WALL (      40 calls)
     v_h          :      6.32s CPU      7.24s WALL (      40 calls)
     v_xc         :     85.25s CPU    103.08s WALL (      42 calls)
     newd         :    103.63s CPU    142.27s WALL (      40 calls)
     PAW_pot      :     43.27s CPU     50.78s WALL (      40 calls)
     mix_rho      :     55.12s CPU     66.39s WALL (      39 calls)

     Called by c_bands:
     init_us_2    :    131.04s CPU    170.12s WALL (   14904 calls)
     cegterg      : 106395.16s CPU 129232.33s WALL (    7176 calls)

     Called by sum_band:
     sum_band:wei :      0.41s CPU      0.58s WALL (      39 calls)
     sum_band:loo :  19342.55s CPU  23872.81s WALL (      39 calls)
     sum_band:buf :     37.63s CPU     41.06s WALL (    7176 calls)
     sum_band:ini :     56.80s CPU     76.10s WALL (    7176 calls)
     sum_band:cal :   1653.17s CPU   2012.91s WALL (    7176 calls)
     sum_band:bec :      5.02s CPU      5.49s WALL (    7176 calls)
     addusdens    :    218.82s CPU    292.20s WALL (      39 calls)
     addusd:skk   :      1.21s CPU      1.52s WALL (     117 calls)
     addusd:dgemm :     70.79s CPU    107.62s WALL (     234 calls)
     addusd:qvan2 :    144.28s CPU    179.22s WALL (     234 calls)

     Called by *egterg:
     cdiaghg      :   2631.03s CPU   3255.60s WALL (   26480 calls)
     cegterg:over :   5016.51s CPU   5995.38s WALL (   19304 calls)
     cegterg:upda :   1149.89s CPU   1420.90s WALL (   19304 calls)
     cegterg:last :   2446.04s CPU   3022.75s WALL (   12547 calls)
     h_psi        :  89855.80s CPU 109201.07s WALL (   26664 calls)
     s_psi        :   2277.08s CPU   2803.35s WALL (   26664 calls)
     g_psi        :     16.86s CPU     20.38s WALL (   19304 calls)

     Called by h_psi:
     h_psi:calbec :   4367.77s CPU   5258.90s WALL (   26664 calls)
     vloc_psi     :  83106.33s CPU 100955.51s WALL (   26664 calls)
     add_vuspsi   :   2321.10s CPU   2918.53s WALL (   26664 calls)

     General routines
     calbec       :   6271.05s CPU   7585.87s WALL (   34760 calls)
     fft          :     99.88s CPU    121.39s WALL (    1038 calls)
     ffts         :     11.65s CPU     14.69s WALL (     158 calls)
     fftw         : 100302.46s CPU 122269.61s WALL ( 5230850 calls)
     interpolate  :     12.79s CPU     16.32s WALL (      80 calls)

     Parallel routines
     fft_scatt_xy :    546.50s CPU    549.10s WALL ( 5232046 calls)
     fft_scatt_yz :  97034.66s CPU 118964.41s WALL ( 5232046 calls)

     PAW routines
     PAW_pot      :     43.27s CPU     50.78s WALL (      40 calls)
     PAW_symme    :      3.48s CPU      4.43s WALL (      79 calls)

     PWSCF        :   1d11h57m CPU   1d19h48m WALL


   This run was terminated on:  21:22: 3   1Feb2023            

=------------------------------------------------------------------------------=
   JOB DONE.
=------------------------------------------------------------------------------=
Note: The following floating-point exceptions are signalling: IEEE_DENORMAL
Note: The following floating-point exceptions are signalling: IEEE_DENORMAL
Note: The following floating-point exceptions are signalling: IEEE_DENORMAL
Note: The following floating-point exceptions are signalling: IEEE_DENORMAL
Note: The following floating-point exceptions are signalling: IEEE_DENORMAL
Note: The following floating-point exceptions are signalling: IEEE_DENORMAL
Note: The following floating-point exceptions are signalling: IEEE_DENORMAL
Note: The following floating-point exceptions are signalling: IEEE_DENORMAL
Note: The following floating-point exceptions are signalling: IEEE_UNDERFLOW_FLAG IEEE_DENORMAL
Note: The following floating-point exceptions are signalling: IEEE_DENORMAL
Note: The following floating-point exceptions are signalling: IEEE_DENORMAL
