
     Program PWSCF v.6.7MaX starts on 31Jan2023 at 23:54: 2 

     This program is part of the open-source Quantum ESPRESSO suite
     for quantum simulation of materials; please cite
         "P. Giannozzi et al., J. Phys.:Condens. Matter 21 395502 (2009);
         "P. Giannozzi et al., J. Phys.:Condens. Matter 29 465901 (2017);
          URL http://www.quantum-espresso.org", 
     in publications or presentations arising from this work. More details at
     http://www.quantum-espresso.org/quote

     Parallel version (MPI), running on    12 processors

     MPI processes distributed on     1 nodes
     R & G space division:  proc/nbgrp/npool/nimage =      12
     Reading input from scale_1da-05.in

     Current dimensions of program PWSCF are:
     Max number of different atomic species (ntypx) = 10
     Max number of k-points (npk) =  40000
     Max angular momentum in pseudopotentials (lmaxx) =  3
     Message from routine read_pp_mesh:
     mesh size missing, using the one in header
     file Fe.pbe-spn-kjpaw_psl.0.2.1.UPF: wavefunction(s)  3D renormalized
     file O.pbe-n-kjpaw_psl.0.1.UPF: wavefunction(s)  2P renormalized

     Subspace diagonalization in iterative solution of the eigenvalue problem:
     a serial algorithm will be used

     Message from routine setup:
     using ibrav=0 with symmetry is DISCOURAGED, use correct ibrav instead

     Parallelization info
     --------------------
     sticks:   dense  smooth     PW     G-vecs:    dense   smooth      PW
     Min        1738     643    174               113304    25531    3584
     Max        1739     644    175               113306    25534    3586
     Sum       20861    7725   2091              1359665   306383   43025



     bravais-lattice index     =            0
     lattice parameter (alat)  =      20.6483  a.u.
     unit-cell volume          =    2268.3757 (a.u.)^3
     number of atoms/cell      =           28
     number of atomic types    =            4
     number of electrons       =       216.00
     number of Kohn-Sham states=          130
     kinetic-energy cutoff     =     100.0000  Ry
     charge density cutoff     =    1080.0000  Ry
     scf convergence threshold =      2.0E-10
     mixing beta               =       0.4000
     number of iterations used =            8  plain     mixing
     Exchange-correlation= PBE
                           (   1   4   3   4   0   0   0)

     celldm(1)=  20.648310  celldm(2)=   0.000000  celldm(3)=   0.000000
     celldm(4)=   0.000000  celldm(5)=   0.000000  celldm(6)=   0.000000

     crystal axes: (cart. coord. in units of alat)
               a(1) = (   1.000000   0.000000   0.000000 )  
               a(2) = (   0.000000   0.569133   0.000000 )  
               a(3) = (   0.000000   0.000000   0.452739 )  

     reciprocal axes: (cart. coord. in units 2 pi/alat)
               b(1) = (  1.000000  0.000000  0.000000 )  
               b(2) = (  0.000000  1.757058  0.000000 )  
               b(3) = (  0.000000  0.000000  2.208780 )  


     PseudoPot. # 1 for Fe read from file:
     /opt/QEpot/SSSP_precision_pseudos/Fe.pbe-spn-kjpaw_psl.0.2.1.UPF
     MD5 check sum: e86618425769142926afa95317d90200
     Pseudo is Projector augmented-wave + core cor, Zval = 16.0
     Generated using "atomic" code by A. Dal Corso  v.5.0.99 svn rev. 10869
     Shape of augmentation charge: PSQ
     Using radial grid of 1191 points,  6 beta functions with: 
                l(1) =   0
                l(2) =   0
                l(3) =   1
                l(4) =   1
                l(5) =   2
                l(6) =   2
     Q(r) pseudized with 0 coefficients 


     PseudoPot. # 2 for Na read from file:
     /opt/QEpot/SSSP_precision_pseudos/Na_ONCV_PBE-1.0.oncvpsp.upf
     MD5 check sum: 24a298df0a6742ae313db96548fdb2a4
     Pseudo is Norm-conserving, Zval =  9.0
     Generated using ONCVPSP code by D. R. Hamann
     Using radial grid of 1992 points,  4 beta functions with: 
                l(1) =   0
                l(2) =   0
                l(3) =   1
                l(4) =   1

     PseudoPot. # 3 for O  read from file:
     /opt/QEpot/SSSP_precision_pseudos/O.pbe-n-kjpaw_psl.0.1.UPF
     MD5 check sum: 0234752ac141de4415c5fc33072bef88
     Pseudo is Projector augmented-wave + core cor, Zval =  6.0
     Generated using "atomic" code by A. Dal Corso  v.5.0.99 svn rev. 10869
     Shape of augmentation charge: BESSEL
     Using radial grid of 1095 points,  4 beta functions with: 
                l(1) =   0
                l(2) =   0
                l(3) =   1
                l(4) =   1
     Q(r) pseudized with 0 coefficients 


     PseudoPot. # 4 for P  read from file:
     /opt/QEpot/SSSP_precision_pseudos/P.pbe-n-rrkjus_psl.1.0.0.UPF
     MD5 check sum: 8b930f418f0a4573dca56cd030ffe088
     Pseudo is Ultrasoft + core correction, Zval =  5.0
     Generated using "atomic" code by A. Dal Corso  v.5.1
     Using radial grid of 1147 points,  6 beta functions with: 
                l(1) =   0
                l(2) =   0
                l(3) =   1
                l(4) =   1
                l(5) =   2
                l(6) =   2
     Q(r) pseudized with 0 coefficients 


     atomic species   valence    mass     pseudopotential
        Fe            16.00    55.84500     Fe( 1.00)
        Na             9.00    22.98977     Na( 1.00)
        O              6.00    15.99940     O ( 1.00)
        P              5.00    30.97376     P ( 1.00)

     Starting magnetic structure 
     atomic species   magnetization
        Fe           0.312
        Na           0.000
        O            0.000
        P            0.000

      4 Sym. Ops., with inversion, found ( 2 have fractional translation)


                                    s                        frac. trans.

      isym =  1     identity                                     

 cryst.   s( 1) = (     1          0          0      )
                  (     0          1          0      )
                  (     0          0          1      )

 cart.    s( 1) = (  1.0000000  0.0000000  0.0000000 )
                  (  0.0000000  1.0000000  0.0000000 )
                  (  0.0000000  0.0000000  1.0000000 )


      isym =  2     180 deg rotation - cart. axis [0,1,0]        

 cryst.   s( 2) = (    -1          0          0      )    f =(  0.0000000 )
                  (     0          1          0      )       ( -0.4999980 )
                  (     0          0         -1      )       (  0.0000000 )

 cart.    s( 2) = ( -1.0000000  0.0000000  0.0000000 )    f =(  0.0000000 )
                  (  0.0000000  1.0000000  0.0000000 )       ( -0.2845655 )
                  (  0.0000000  0.0000000 -1.0000000 )       (  0.0000000 )


      isym =  3     inversion                                    

 cryst.   s( 3) = (    -1          0          0      )
                  (     0         -1          0      )
                  (     0          0         -1      )

 cart.    s( 3) = ( -1.0000000  0.0000000  0.0000000 )
                  (  0.0000000 -1.0000000  0.0000000 )
                  (  0.0000000  0.0000000 -1.0000000 )


      isym =  4     inv. 180 deg rotation - cart. axis [0,1,0]   

 cryst.   s( 4) = (     1          0          0      )    f =(  0.0000000 )
                  (     0         -1          0      )       (  0.4999980 )
                  (     0          0          1      )       (  0.0000000 )

 cart.    s( 4) = (  1.0000000  0.0000000  0.0000000 )    f =(  0.0000000 )
                  (  0.0000000 -1.0000000  0.0000000 )       (  0.2845655 )
                  (  0.0000000  0.0000000  1.0000000 )       (  0.0000000 )


   Cartesian axes

     site n.     atom                  positions (alat units)
         1           Na  tau(   1) = (   0.0000000   0.0000000   0.0000000  )
         2           Na  tau(   2) = (   0.5000030   0.0000000   0.2263706  )
         3           Na  tau(   3) = (   1.0000000   0.2845678   0.0000000  )
         4           Na  tau(   4) = (   0.5000030   0.2845678   0.2263706  )
         5           Fe  tau(   5) = (   0.2870220   0.4268522   0.4465750  )
         6           Fe  tau(   6) = (   0.2129810   0.1422839   0.2202043  )
         7           Fe  tau(   7) = (   0.7129840   0.1422839   0.0061663  )
         8           Fe  tau(   8) = (   0.7870240   0.4268522   0.2325369  )
         9           P   tau(   9) = (   0.1083410   0.4268522   0.2003880  )
        10           P   tau(  10) = (   0.3916620   0.1422839   0.4267586  )
        11           P   tau(  11) = (   0.8916650   0.1422839   0.2523533  )
        12           P   tau(  12) = (   0.6083440   0.4268522   0.0259827  )
        13           O   tau(  13) = (   0.1140120   0.4268522   0.3406514  )
        14           O   tau(  14) = (   0.3859910   0.1422839   0.1142807  )
        15           O   tau(  15) = (   0.8859940   0.1422839   0.1120904  )
        16           O   tau(  16) = (   0.6140150   0.4268522   0.3384610  )
        17           O   tau(  17) = (   0.4685140   0.4268522   0.0729452  )
        18           O   tau(  18) = (   0.0314890   0.1422839   0.2993159  )
        19           O   tau(  19) = (   0.5314920   0.1422839   0.3797960  )
        20           O   tau(  20) = (   0.9685170   0.4268522   0.1534254  )
        21           O   tau(  21) = (   0.1755910   0.5376130   0.1411702  )
        22           O   tau(  22) = (   0.3244120   0.0315232   0.3675409  )
        23           O   tau(  23) = (   0.8244150   0.2530446   0.3115711  )
        24           O   tau(  24) = (   0.6755940   0.3160915   0.0852004  )
        25           O   tau(  25) = (   0.8244150   0.0315232   0.3115711  )
        26           O   tau(  26) = (   0.6755940   0.5376130   0.0852004  )
        27           O   tau(  27) = (   0.1755910   0.3160915   0.1411702  )
        28           O   tau(  28) = (   0.3244120   0.2530446   0.3675409  )

   Crystallographic axes

     site n.     atom                  positions (cryst. coord.)
         1           Na  tau(   1) = (  0.0000000  0.0000000  0.0000000  )
         2           Na  tau(   2) = (  0.5000030  0.0000000  0.5000030  )
         3           Na  tau(   3) = (  1.0000000  0.5000020  0.0000000  )
         4           Na  tau(   4) = (  0.5000030  0.5000020  0.5000030  )
         5           Fe  tau(   5) = (  0.2870220  0.7500040  0.9863860  )
         6           Fe  tau(   6) = (  0.2129810  0.2500010  0.4863830  )
         7           Fe  tau(   7) = (  0.7129840  0.2500010  0.0136200  )
         8           Fe  tau(   8) = (  0.7870240  0.7500040  0.5136230  )
         9           P   tau(   9) = (  0.1083410  0.7500040  0.4426130  )
        10           P   tau(  10) = (  0.3916620  0.2500010  0.9426160  )
        11           P   tau(  11) = (  0.8916650  0.2500010  0.5573930  )
        12           P   tau(  12) = (  0.6083440  0.7500040  0.0573900  )
        13           O   tau(  13) = (  0.1140120  0.7500040  0.7524240  )
        14           O   tau(  14) = (  0.3859910  0.2500010  0.2524210  )
        15           O   tau(  15) = (  0.8859940  0.2500010  0.2475830  )
        16           O   tau(  16) = (  0.6140150  0.7500040  0.7475860  )
        17           O   tau(  17) = (  0.4685140  0.7500040  0.1611200  )
        18           O   tau(  18) = (  0.0314890  0.2500010  0.6611230  )
        19           O   tau(  19) = (  0.5314920  0.2500010  0.8388860  )
        20           O   tau(  20) = (  0.9685170  0.7500040  0.3388830  )
        21           O   tau(  21) = (  0.1755910  0.9446170  0.3118140  )
        22           O   tau(  22) = (  0.3244120  0.0553880  0.8118170  )
        23           O   tau(  23) = (  0.8244150  0.4446140  0.6881920  )
        24           O   tau(  24) = (  0.6755940  0.5553910  0.1881890  )
        25           O   tau(  25) = (  0.8244150  0.0553880  0.6881920  )
        26           O   tau(  26) = (  0.6755940  0.9446170  0.1881890  )
        27           O   tau(  27) = (  0.1755910  0.5553910  0.3118140  )
        28           O   tau(  28) = (  0.3244120  0.4446140  0.8118170  )

     number of k points=    92  Marzari-Vanderbilt smearing, width (Ry)=  0.0073
                       cart. coord. in units 2pi/alat
        k(    1) = (   0.0000000   0.0000000   0.0000000), wk =   0.0031746
        k(    2) = (   0.0000000   0.0000000   0.2454200), wk =   0.0063492
        k(    3) = (   0.0000000   0.0000000   0.4908401), wk =   0.0063492
        k(    4) = (   0.0000000   0.0000000   0.7362601), wk =   0.0063492
        k(    5) = (   0.0000000   0.0000000   0.9816801), wk =   0.0063492
        k(    6) = (   0.0000000   0.2510082   0.0000000), wk =   0.0063492
        k(    7) = (   0.0000000   0.2510082   0.2454200), wk =   0.0126984
        k(    8) = (   0.0000000   0.2510082   0.4908401), wk =   0.0126984
        k(    9) = (   0.0000000   0.2510082   0.7362601), wk =   0.0126984
        k(   10) = (   0.0000000   0.2510082   0.9816801), wk =   0.0126984
        k(   11) = (   0.0000000   0.5020165   0.0000000), wk =   0.0063492
        k(   12) = (   0.0000000   0.5020165   0.2454200), wk =   0.0126984
        k(   13) = (   0.0000000   0.5020165   0.4908401), wk =   0.0126984
        k(   14) = (   0.0000000   0.5020165   0.7362601), wk =   0.0126984
        k(   15) = (   0.0000000   0.5020165   0.9816801), wk =   0.0126984
        k(   16) = (   0.0000000   0.7530247   0.0000000), wk =   0.0063492
        k(   17) = (   0.0000000   0.7530247   0.2454200), wk =   0.0126984
        k(   18) = (   0.0000000   0.7530247   0.4908401), wk =   0.0126984
        k(   19) = (   0.0000000   0.7530247   0.7362601), wk =   0.0126984
        k(   20) = (   0.0000000   0.7530247   0.9816801), wk =   0.0126984
        k(   21) = (   0.2000000   0.0000000   0.0000000), wk =   0.0063492
        k(   22) = (   0.2000000   0.0000000   0.2454200), wk =   0.0063492
        k(   23) = (   0.2000000   0.0000000   0.4908401), wk =   0.0063492
        k(   24) = (   0.2000000   0.0000000   0.7362601), wk =   0.0063492
        k(   25) = (   0.2000000   0.0000000   0.9816801), wk =   0.0063492
        k(   26) = (   0.2000000   0.2510082   0.0000000), wk =   0.0126984
        k(   27) = (   0.2000000   0.2510082   0.2454200), wk =   0.0126984
        k(   28) = (   0.2000000   0.2510082   0.4908401), wk =   0.0126984
        k(   29) = (   0.2000000   0.2510082   0.7362601), wk =   0.0126984
        k(   30) = (   0.2000000   0.2510082   0.9816801), wk =   0.0126984
        k(   31) = (   0.2000000   0.5020165   0.0000000), wk =   0.0126984
        k(   32) = (   0.2000000   0.5020165   0.2454200), wk =   0.0126984
        k(   33) = (   0.2000000   0.5020165   0.4908401), wk =   0.0126984
        k(   34) = (   0.2000000   0.5020165   0.7362601), wk =   0.0126984
        k(   35) = (   0.2000000   0.5020165   0.9816801), wk =   0.0126984
        k(   36) = (   0.2000000   0.7530247   0.0000000), wk =   0.0126984
        k(   37) = (   0.2000000   0.7530247   0.2454200), wk =   0.0126984
        k(   38) = (   0.2000000   0.7530247   0.4908401), wk =   0.0126984
        k(   39) = (   0.2000000   0.7530247   0.7362601), wk =   0.0126984
        k(   40) = (   0.2000000   0.7530247   0.9816801), wk =   0.0126984
        k(   41) = (   0.4000000   0.0000000   0.0000000), wk =   0.0063492
        k(   42) = (   0.4000000   0.0000000   0.2454200), wk =   0.0063492
        k(   43) = (   0.4000000   0.0000000   0.4908401), wk =   0.0063492
        k(   44) = (   0.4000000   0.0000000   0.7362601), wk =   0.0063492
        k(   45) = (   0.4000000   0.0000000   0.9816801), wk =   0.0063492
        k(   46) = (   0.4000000   0.2510082   0.0000000), wk =   0.0126984
        k(   47) = (   0.4000000   0.2510082   0.2454200), wk =   0.0126984
        k(   48) = (   0.4000000   0.2510082   0.4908401), wk =   0.0126984
        k(   49) = (   0.4000000   0.2510082   0.7362601), wk =   0.0126984
        k(   50) = (   0.4000000   0.2510082   0.9816801), wk =   0.0126984
        k(   51) = (   0.4000000   0.5020165   0.0000000), wk =   0.0126984
        k(   52) = (   0.4000000   0.5020165   0.2454200), wk =   0.0126984
        k(   53) = (   0.4000000   0.5020165   0.4908401), wk =   0.0126984
        k(   54) = (   0.4000000   0.5020165   0.7362601), wk =   0.0126984
        k(   55) = (   0.4000000   0.5020165   0.9816801), wk =   0.0126984
        k(   56) = (   0.4000000   0.7530247   0.0000000), wk =   0.0126984
        k(   57) = (   0.4000000   0.7530247   0.2454200), wk =   0.0126984
        k(   58) = (   0.4000000   0.7530247   0.4908401), wk =   0.0126984
        k(   59) = (   0.4000000   0.7530247   0.7362601), wk =   0.0126984
        k(   60) = (   0.4000000   0.7530247   0.9816801), wk =   0.0126984
        k(   61) = (  -0.2000000   0.0000000   0.2454200), wk =   0.0063492
        k(   62) = (  -0.2000000   0.0000000   0.4908401), wk =   0.0063492
        k(   63) = (  -0.2000000   0.0000000   0.7362601), wk =   0.0063492
        k(   64) = (  -0.2000000   0.0000000   0.9816801), wk =   0.0063492
        k(   65) = (  -0.2000000  -0.2510082   0.2454200), wk =   0.0126984
        k(   66) = (  -0.2000000  -0.2510082   0.4908401), wk =   0.0126984
        k(   67) = (  -0.2000000  -0.2510082   0.7362601), wk =   0.0126984
        k(   68) = (  -0.2000000  -0.2510082   0.9816801), wk =   0.0126984
        k(   69) = (  -0.2000000  -0.5020165   0.2454200), wk =   0.0126984
        k(   70) = (  -0.2000000  -0.5020165   0.4908401), wk =   0.0126984
        k(   71) = (  -0.2000000  -0.5020165   0.7362601), wk =   0.0126984
        k(   72) = (  -0.2000000  -0.5020165   0.9816801), wk =   0.0126984
        k(   73) = (  -0.2000000  -0.7530247   0.2454200), wk =   0.0126984
        k(   74) = (  -0.2000000  -0.7530247   0.4908401), wk =   0.0126984
        k(   75) = (  -0.2000000  -0.7530247   0.7362601), wk =   0.0126984
        k(   76) = (  -0.2000000  -0.7530247   0.9816801), wk =   0.0126984
        k(   77) = (  -0.4000000   0.0000000   0.2454200), wk =   0.0063492
        k(   78) = (  -0.4000000   0.0000000   0.4908401), wk =   0.0063492
        k(   79) = (  -0.4000000   0.0000000   0.7362601), wk =   0.0063492
        k(   80) = (  -0.4000000   0.0000000   0.9816801), wk =   0.0063492
        k(   81) = (  -0.4000000  -0.2510082   0.2454200), wk =   0.0126984
        k(   82) = (  -0.4000000  -0.2510082   0.4908401), wk =   0.0126984
        k(   83) = (  -0.4000000  -0.2510082   0.7362601), wk =   0.0126984
        k(   84) = (  -0.4000000  -0.2510082   0.9816801), wk =   0.0126984
        k(   85) = (  -0.4000000  -0.5020165   0.2454200), wk =   0.0126984
        k(   86) = (  -0.4000000  -0.5020165   0.4908401), wk =   0.0126984
        k(   87) = (  -0.4000000  -0.5020165   0.7362601), wk =   0.0126984
        k(   88) = (  -0.4000000  -0.5020165   0.9816801), wk =   0.0126984
        k(   89) = (  -0.4000000  -0.7530247   0.2454200), wk =   0.0126984
        k(   90) = (  -0.4000000  -0.7530247   0.4908401), wk =   0.0126984
        k(   91) = (  -0.4000000  -0.7530247   0.7362601), wk =   0.0126984
        k(   92) = (  -0.4000000  -0.7530247   0.9816801), wk =   0.0126984

                       cryst. coord.
        k(    1) = (   0.0000000   0.0000000   0.0000000), wk =   0.0031746
        k(    2) = (   0.0000000   0.0000000   0.1111111), wk =   0.0063492
        k(    3) = (   0.0000000   0.0000000   0.2222222), wk =   0.0063492
        k(    4) = (   0.0000000   0.0000000   0.3333333), wk =   0.0063492
        k(    5) = (   0.0000000   0.0000000   0.4444444), wk =   0.0063492
        k(    6) = (   0.0000000   0.1428571   0.0000000), wk =   0.0063492
        k(    7) = (   0.0000000   0.1428571   0.1111111), wk =   0.0126984
        k(    8) = (   0.0000000   0.1428571   0.2222222), wk =   0.0126984
        k(    9) = (   0.0000000   0.1428571   0.3333333), wk =   0.0126984
        k(   10) = (   0.0000000   0.1428571   0.4444444), wk =   0.0126984
        k(   11) = (   0.0000000   0.2857143   0.0000000), wk =   0.0063492
        k(   12) = (   0.0000000   0.2857143   0.1111111), wk =   0.0126984
        k(   13) = (   0.0000000   0.2857143   0.2222222), wk =   0.0126984
        k(   14) = (   0.0000000   0.2857143   0.3333333), wk =   0.0126984
        k(   15) = (   0.0000000   0.2857143   0.4444444), wk =   0.0126984
        k(   16) = (   0.0000000   0.4285714   0.0000000), wk =   0.0063492
        k(   17) = (   0.0000000   0.4285714   0.1111111), wk =   0.0126984
        k(   18) = (   0.0000000   0.4285714   0.2222222), wk =   0.0126984
        k(   19) = (   0.0000000   0.4285714   0.3333333), wk =   0.0126984
        k(   20) = (   0.0000000   0.4285714   0.4444444), wk =   0.0126984
        k(   21) = (   0.2000000   0.0000000   0.0000000), wk =   0.0063492
        k(   22) = (   0.2000000   0.0000000   0.1111111), wk =   0.0063492
        k(   23) = (   0.2000000   0.0000000   0.2222222), wk =   0.0063492
        k(   24) = (   0.2000000   0.0000000   0.3333333), wk =   0.0063492
        k(   25) = (   0.2000000   0.0000000   0.4444444), wk =   0.0063492
        k(   26) = (   0.2000000   0.1428571   0.0000000), wk =   0.0126984
        k(   27) = (   0.2000000   0.1428571   0.1111111), wk =   0.0126984
        k(   28) = (   0.2000000   0.1428571   0.2222222), wk =   0.0126984
        k(   29) = (   0.2000000   0.1428571   0.3333333), wk =   0.0126984
        k(   30) = (   0.2000000   0.1428571   0.4444444), wk =   0.0126984
        k(   31) = (   0.2000000   0.2857143   0.0000000), wk =   0.0126984
        k(   32) = (   0.2000000   0.2857143   0.1111111), wk =   0.0126984
        k(   33) = (   0.2000000   0.2857143   0.2222222), wk =   0.0126984
        k(   34) = (   0.2000000   0.2857143   0.3333333), wk =   0.0126984
        k(   35) = (   0.2000000   0.2857143   0.4444444), wk =   0.0126984
        k(   36) = (   0.2000000   0.4285714   0.0000000), wk =   0.0126984
        k(   37) = (   0.2000000   0.4285714   0.1111111), wk =   0.0126984
        k(   38) = (   0.2000000   0.4285714   0.2222222), wk =   0.0126984
        k(   39) = (   0.2000000   0.4285714   0.3333333), wk =   0.0126984
        k(   40) = (   0.2000000   0.4285714   0.4444444), wk =   0.0126984
        k(   41) = (   0.4000000   0.0000000   0.0000000), wk =   0.0063492
        k(   42) = (   0.4000000   0.0000000   0.1111111), wk =   0.0063492
        k(   43) = (   0.4000000   0.0000000   0.2222222), wk =   0.0063492
        k(   44) = (   0.4000000   0.0000000   0.3333333), wk =   0.0063492
        k(   45) = (   0.4000000   0.0000000   0.4444444), wk =   0.0063492
        k(   46) = (   0.4000000   0.1428571   0.0000000), wk =   0.0126984
        k(   47) = (   0.4000000   0.1428571   0.1111111), wk =   0.0126984
        k(   48) = (   0.4000000   0.1428571   0.2222222), wk =   0.0126984
        k(   49) = (   0.4000000   0.1428571   0.3333333), wk =   0.0126984
        k(   50) = (   0.4000000   0.1428571   0.4444444), wk =   0.0126984
        k(   51) = (   0.4000000   0.2857143   0.0000000), wk =   0.0126984
        k(   52) = (   0.4000000   0.2857143   0.1111111), wk =   0.0126984
        k(   53) = (   0.4000000   0.2857143   0.2222222), wk =   0.0126984
        k(   54) = (   0.4000000   0.2857143   0.3333333), wk =   0.0126984
        k(   55) = (   0.4000000   0.2857143   0.4444444), wk =   0.0126984
        k(   56) = (   0.4000000   0.4285714   0.0000000), wk =   0.0126984
        k(   57) = (   0.4000000   0.4285714   0.1111111), wk =   0.0126984
        k(   58) = (   0.4000000   0.4285714   0.2222222), wk =   0.0126984
        k(   59) = (   0.4000000   0.4285714   0.3333333), wk =   0.0126984
        k(   60) = (   0.4000000   0.4285714   0.4444444), wk =   0.0126984
        k(   61) = (  -0.2000000   0.0000000   0.1111111), wk =   0.0063492
        k(   62) = (  -0.2000000   0.0000000   0.2222222), wk =   0.0063492
        k(   63) = (  -0.2000000   0.0000000   0.3333333), wk =   0.0063492
        k(   64) = (  -0.2000000   0.0000000   0.4444444), wk =   0.0063492
        k(   65) = (  -0.2000000  -0.1428571   0.1111111), wk =   0.0126984
        k(   66) = (  -0.2000000  -0.1428571   0.2222222), wk =   0.0126984
        k(   67) = (  -0.2000000  -0.1428571   0.3333333), wk =   0.0126984
        k(   68) = (  -0.2000000  -0.1428571   0.4444444), wk =   0.0126984
        k(   69) = (  -0.2000000  -0.2857143   0.1111111), wk =   0.0126984
        k(   70) = (  -0.2000000  -0.2857143   0.2222222), wk =   0.0126984
        k(   71) = (  -0.2000000  -0.2857143   0.3333333), wk =   0.0126984
        k(   72) = (  -0.2000000  -0.2857143   0.4444444), wk =   0.0126984
        k(   73) = (  -0.2000000  -0.4285714   0.1111111), wk =   0.0126984
        k(   74) = (  -0.2000000  -0.4285714   0.2222222), wk =   0.0126984
        k(   75) = (  -0.2000000  -0.4285714   0.3333333), wk =   0.0126984
        k(   76) = (  -0.2000000  -0.4285714   0.4444444), wk =   0.0126984
        k(   77) = (  -0.4000000   0.0000000   0.1111111), wk =   0.0063492
        k(   78) = (  -0.4000000   0.0000000   0.2222222), wk =   0.0063492
        k(   79) = (  -0.4000000   0.0000000   0.3333333), wk =   0.0063492
        k(   80) = (  -0.4000000   0.0000000   0.4444444), wk =   0.0063492
        k(   81) = (  -0.4000000  -0.1428571   0.1111111), wk =   0.0126984
        k(   82) = (  -0.4000000  -0.1428571   0.2222222), wk =   0.0126984
        k(   83) = (  -0.4000000  -0.1428571   0.3333333), wk =   0.0126984
        k(   84) = (  -0.4000000  -0.1428571   0.4444444), wk =   0.0126984
        k(   85) = (  -0.4000000  -0.2857143   0.1111111), wk =   0.0126984
        k(   86) = (  -0.4000000  -0.2857143   0.2222222), wk =   0.0126984
        k(   87) = (  -0.4000000  -0.2857143   0.3333333), wk =   0.0126984
        k(   88) = (  -0.4000000  -0.2857143   0.4444444), wk =   0.0126984
        k(   89) = (  -0.4000000  -0.4285714   0.1111111), wk =   0.0126984
        k(   90) = (  -0.4000000  -0.4285714   0.2222222), wk =   0.0126984
        k(   91) = (  -0.4000000  -0.4285714   0.3333333), wk =   0.0126984
        k(   92) = (  -0.4000000  -0.4285714   0.4444444), wk =   0.0126984

     Dense  grid:  1359665 G-vectors     FFT dimensions: ( 216, 128, 100)

     Smooth grid:   306383 G-vectors     FFT dimensions: ( 135,  80,  60)

     Dynamical RAM for                 wfc:       6.33 MB

     Dynamical RAM for     wfc (w. buffer):    1171.38 MB

     Dynamical RAM for           str. fact:       6.92 MB

     Dynamical RAM for           local pot:       0.00 MB

     Dynamical RAM for          nlocal pot:      14.81 MB

     Dynamical RAM for                qrad:      10.54 MB

     Dynamical RAM for          rho,v,vnew:      21.76 MB

     Dynamical RAM for               rhoin:       7.25 MB

     Dynamical RAM for            rho*nmix:      55.33 MB

     Dynamical RAM for           G-vectors:       6.68 MB

     Dynamical RAM for          h,s,v(r/c):       3.09 MB

     Dynamical RAM for          <psi|beta>:       0.60 MB

     Dynamical RAM for                 psi:      12.66 MB

     Dynamical RAM for                hpsi:      12.66 MB

     Dynamical RAM for                spsi:      12.66 MB

     Dynamical RAM for      wfcinit/wfcrot:      15.34 MB

     Dynamical RAM for           addusdens:     350.97 MB

     Dynamical RAM for          addusforce:     402.96 MB

     Dynamical RAM for         addusstress:     350.10 MB

     Estimated static dynamical RAM per process >       1.28 GB

     Estimated max dynamical RAM per process >       1.68 GB

     Estimated total dynamical RAM >      20.13 GB

     Check: negative core charge=   -0.000003
     Generating pointlists ...
     new r_m :   0.0803 (alat units)  1.6571 (a.u.) for type    1
     new r_m :   0.0873 (alat units)  1.8023 (a.u.) for type    2
     new r_m :   0.0579 (alat units)  1.1956 (a.u.) for type    3
     new r_m :   0.0579 (alat units)  1.1956 (a.u.) for type    4

     Initial potential from superposition of free atoms

     starting charge  215.97252, renormalised to  216.00000
     Starting wfcs are  152 randomized atomic wfcs
     Checking if some PAW data can be deallocated... 
       PAW data deallocated on   10 nodes for type:  1
       PAW data deallocated on    4 nodes for type:  3

     total cpu time spent up to now is     1655.7 secs

     Self-consistent Calculation

     iteration #  1     ecut=   100.00 Ry     beta= 0.40
     Davidson diagonalization with overlap
     ethr =  1.00E-02,  avg # of iterations =  3.2

     negative rho (up, down):  0.000E+00 4.476E-05

     total cpu time spent up to now is     6407.9 secs

     total energy              =   -2380.60621865 Ry
     estimated scf accuracy    <       5.76808329 Ry

     total magnetization       =    16.00 Bohr mag/cell
     absolute magnetization    =    16.01 Bohr mag/cell

     iteration #  2     ecut=   100.00 Ry     beta= 0.40
     Davidson diagonalization with overlap
     ethr =  2.67E-03,  avg # of iterations =  2.0

     negative rho (up, down):  0.000E+00 1.581E-04

     total cpu time spent up to now is    10884.7 secs

     total energy              =   -2382.00717614 Ry
     estimated scf accuracy    <       0.57064469 Ry

     total magnetization       =    16.00 Bohr mag/cell
     absolute magnetization    =    16.01 Bohr mag/cell

     iteration #  3     ecut=   100.00 Ry     beta= 0.40
     Davidson diagonalization with overlap
     ethr =  2.64E-04,  avg # of iterations =  9.0

     negative rho (up, down):  0.000E+00 1.834E-04

     total cpu time spent up to now is    15871.2 secs

     total energy              =   -2382.02775791 Ry
     estimated scf accuracy    <       3.70650859 Ry

     total magnetization       =    16.00 Bohr mag/cell
     absolute magnetization    =    16.04 Bohr mag/cell

     iteration #  4     ecut=   100.00 Ry     beta= 0.40
     Davidson diagonalization with overlap
     ethr =  2.64E-04,  avg # of iterations =  2.0

     negative rho (up, down):  0.000E+00 3.358E-04

     total cpu time spent up to now is    19731.3 secs

     total energy              =   -2382.06667111 Ry
     estimated scf accuracy    <       1.53720797 Ry

     total magnetization       =    16.00 Bohr mag/cell
     absolute magnetization    =    16.06 Bohr mag/cell

     iteration #  5     ecut=   100.00 Ry     beta= 0.40
     Davidson diagonalization with overlap
     ethr =  2.64E-04,  avg # of iterations =  1.5

     negative rho (up, down):  0.000E+00 5.072E-04

     total cpu time spent up to now is    23410.1 secs

     total energy              =   -2382.03841536 Ry
     estimated scf accuracy    <       2.38363355 Ry

     total magnetization       =    16.00 Bohr mag/cell
     absolute magnetization    =    16.05 Bohr mag/cell

     iteration #  6     ecut=   100.00 Ry     beta= 0.40
     Davidson diagonalization with overlap
     ethr =  2.64E-04,  avg # of iterations =  1.9

     negative rho (up, down):  0.000E+00 5.180E-04

     total cpu time spent up to now is    27150.8 secs

     total energy              =   -2382.17517518 Ry
     estimated scf accuracy    <       2.51477415 Ry

     total magnetization       =    16.00 Bohr mag/cell
     absolute magnetization    =    16.07 Bohr mag/cell

     iteration #  7     ecut=   100.00 Ry     beta= 0.40
     Davidson diagonalization with overlap
     ethr =  2.64E-04,  avg # of iterations =  1.0

     negative rho (up, down):  0.000E+00 5.297E-04

     total cpu time spent up to now is    30662.4 secs

     total energy              =   -2382.17302986 Ry
     estimated scf accuracy    <       0.42134741 Ry

     total magnetization       =    16.00 Bohr mag/cell
     absolute magnetization    =    16.07 Bohr mag/cell

     iteration #  8     ecut=   100.00 Ry     beta= 0.40
     Davidson diagonalization with overlap
     ethr =  1.95E-04,  avg # of iterations =  1.0

     negative rho (up, down):  0.000E+00 5.297E-04

     total cpu time spent up to now is    34179.2 secs

     total energy              =   -2382.18815287 Ry
     estimated scf accuracy    <       0.14009014 Ry

     total magnetization       =    16.00 Bohr mag/cell
     absolute magnetization    =    16.08 Bohr mag/cell

     iteration #  9     ecut=   100.00 Ry     beta= 0.40
     Davidson diagonalization with overlap
     ethr =  6.49E-05,  avg # of iterations =  1.1

     negative rho (up, down):  0.000E+00 5.299E-04

     total cpu time spent up to now is    37747.1 secs

     total energy              =   -2382.18826723 Ry
     estimated scf accuracy    <       0.14810398 Ry

     total magnetization       =    16.00 Bohr mag/cell
     absolute magnetization    =    16.08 Bohr mag/cell

     iteration # 10     ecut=   100.00 Ry     beta= 0.40
     Davidson diagonalization with overlap
     ethr =  6.49E-05,  avg # of iterations =  1.0

     negative rho (up, down):  0.000E+00 5.030E-04

     total cpu time spent up to now is    41327.0 secs

     total energy              =   -2382.18811158 Ry
     estimated scf accuracy    <       0.13866718 Ry

     total magnetization       =    16.00 Bohr mag/cell
     absolute magnetization    =    16.08 Bohr mag/cell

     iteration # 11     ecut=   100.00 Ry     beta= 0.40
     Davidson diagonalization with overlap
     ethr =  6.42E-05,  avg # of iterations =  1.1

     negative rho (up, down):  0.000E+00 4.980E-04

     total cpu time spent up to now is    44903.2 secs

     total energy              =   -2382.18532031 Ry
     estimated scf accuracy    <       0.10125595 Ry

     total magnetization       =    16.00 Bohr mag/cell
     absolute magnetization    =    16.08 Bohr mag/cell

     iteration # 12     ecut=   100.00 Ry     beta= 0.40
     Davidson diagonalization with overlap
     c_bands:  1 eigenvalues not converged
     ethr =  4.69E-05,  avg # of iterations =  1.8

     negative rho (up, down):  0.000E+00 5.237E-04

     total cpu time spent up to now is    48575.8 secs

     total energy              =   -2382.15287769 Ry
     estimated scf accuracy    <       1.09656368 Ry

     total magnetization       =    16.00 Bohr mag/cell
     absolute magnetization    =    16.07 Bohr mag/cell

     iteration # 13     ecut=   100.00 Ry     beta= 0.40
     Davidson diagonalization with overlap
     ethr =  4.69E-05,  avg # of iterations =  1.7

     negative rho (up, down):  0.000E+00 5.203E-04

     total cpu time spent up to now is    52256.3 secs

     total energy              =   -2382.18415940 Ry
     estimated scf accuracy    <       0.18379425 Ry

     total magnetization       =    16.00 Bohr mag/cell
     absolute magnetization    =    16.08 Bohr mag/cell

     iteration # 14     ecut=   100.00 Ry     beta= 0.40
     Davidson diagonalization with overlap
     ethr =  4.69E-05,  avg # of iterations =  1.0

     negative rho (up, down):  0.000E+00 5.222E-04

     total cpu time spent up to now is    55819.0 secs

     total energy              =   -2382.19275551 Ry
     estimated scf accuracy    <       0.17408266 Ry

     total magnetization       =    16.00 Bohr mag/cell
     absolute magnetization    =    16.08 Bohr mag/cell

     iteration # 15     ecut=   100.00 Ry     beta= 0.40
     Davidson diagonalization with overlap
     ethr =  4.69E-05,  avg # of iterations =  1.0

     negative rho (up, down):  0.000E+00 5.291E-04

     total cpu time spent up to now is    57889.9 secs

     total energy              =   -2382.19077535 Ry
     estimated scf accuracy    <       0.11303235 Ry

     total magnetization       =    16.00 Bohr mag/cell
     absolute magnetization    =    16.08 Bohr mag/cell

     iteration # 16     ecut=   100.00 Ry     beta= 0.40
     Davidson diagonalization with overlap
     ethr =  4.69E-05,  avg # of iterations =  1.0

     negative rho (up, down):  0.000E+00 5.209E-04

     total cpu time spent up to now is    59906.0 secs

     total energy              =   -2382.19897296 Ry
     estimated scf accuracy    <       0.11723979 Ry

     total magnetization       =    16.00 Bohr mag/cell
     absolute magnetization    =    16.09 Bohr mag/cell

     iteration # 17     ecut=   100.00 Ry     beta= 0.40
     Davidson diagonalization with overlap
     ethr =  4.69E-05,  avg # of iterations =  1.0

     negative rho (up, down):  0.000E+00 5.025E-04

     total cpu time spent up to now is    63479.8 secs

     total energy              =   -2382.20163108 Ry
     estimated scf accuracy    <       0.10037368 Ry

     total magnetization       =    16.00 Bohr mag/cell
     absolute magnetization    =    16.08 Bohr mag/cell

     iteration # 18     ecut=   100.00 Ry     beta= 0.40
     Davidson diagonalization with overlap
     ethr =  4.65E-05,  avg # of iterations =  1.0

     negative rho (up, down):  0.000E+00 4.962E-04

     total cpu time spent up to now is    67061.5 secs

     total energy              =   -2382.20345246 Ry
     estimated scf accuracy    <       0.05453503 Ry

     total magnetization       =    16.00 Bohr mag/cell
     absolute magnetization    =    16.09 Bohr mag/cell

     iteration # 19     ecut=   100.00 Ry     beta= 0.40
     Davidson diagonalization with overlap
     ethr =  2.52E-05,  avg # of iterations =  1.1

     negative rho (up, down):  0.000E+00 4.852E-04

     total cpu time spent up to now is    70647.6 secs

     total energy              =   -2382.20046735 Ry
     estimated scf accuracy    <       0.04922923 Ry

     total magnetization       =    16.00 Bohr mag/cell
     absolute magnetization    =    16.10 Bohr mag/cell

     iteration # 20     ecut=   100.00 Ry     beta= 0.40
     Davidson diagonalization with overlap
     ethr =  2.28E-05,  avg # of iterations =  1.0

     negative rho (up, down):  0.000E+00 4.776E-04

     total cpu time spent up to now is    74219.3 secs

     total energy              =   -2382.19865517 Ry
     estimated scf accuracy    <       0.02532281 Ry

     total magnetization       =    16.00 Bohr mag/cell
     absolute magnetization    =    16.10 Bohr mag/cell

     iteration # 21     ecut=   100.00 Ry     beta= 0.40
     Davidson diagonalization with overlap
     c_bands:  1 eigenvalues not converged
     c_bands:  1 eigenvalues not converged
     ethr =  1.17E-05,  avg # of iterations =  3.5

     negative rho (up, down):  0.000E+00 4.488E-04

     total cpu time spent up to now is    78035.1 secs

     total energy              =   -2382.19916952 Ry
     estimated scf accuracy    <       0.02591935 Ry

     total magnetization       =    16.00 Bohr mag/cell
     absolute magnetization    =    16.11 Bohr mag/cell

     iteration # 22     ecut=   100.00 Ry     beta= 0.40
     Davidson diagonalization with overlap
     ethr =  1.17E-05,  avg # of iterations =  2.0

     negative rho (up, down):  0.000E+00 4.499E-04

     total cpu time spent up to now is    81866.5 secs

     total energy              =   -2382.20116985 Ry
     estimated scf accuracy    <       0.02719658 Ry

     total magnetization       =    16.00 Bohr mag/cell
     absolute magnetization    =    16.12 Bohr mag/cell

     iteration # 23     ecut=   100.00 Ry     beta= 0.40
     Davidson diagonalization with overlap
     ethr =  1.17E-05,  avg # of iterations =  1.1

     negative rho (up, down):  0.000E+00 4.774E-04

     total cpu time spent up to now is    85454.5 secs

     total energy              =   -2382.20050566 Ry
     estimated scf accuracy    <       0.02887656 Ry

     total magnetization       =    16.00 Bohr mag/cell
     absolute magnetization    =    16.12 Bohr mag/cell

     iteration # 24     ecut=   100.00 Ry     beta= 0.40
     Davidson diagonalization with overlap
     ethr =  1.17E-05,  avg # of iterations =  1.3

     negative rho (up, down):  0.000E+00 4.936E-04

     total cpu time spent up to now is    89086.9 secs

     total energy              =   -2382.20284167 Ry
     estimated scf accuracy    <       0.00281611 Ry

     total magnetization       =    16.00 Bohr mag/cell
     absolute magnetization    =    16.11 Bohr mag/cell

     iteration # 25     ecut=   100.00 Ry     beta= 0.40
     Davidson diagonalization with overlap
     c_bands:  1 eigenvalues not converged
     c_bands:  2 eigenvalues not converged
     c_bands:  1 eigenvalues not converged
     c_bands:  1 eigenvalues not converged
     c_bands:  1 eigenvalues not converged
     c_bands:  1 eigenvalues not converged
     c_bands:  1 eigenvalues not converged
     c_bands:  1 eigenvalues not converged
     c_bands:  1 eigenvalues not converged
     c_bands:  1 eigenvalues not converged
     c_bands:  1 eigenvalues not converged
     ethr =  1.30E-06,  avg # of iterations = 10.4

     negative rho (up, down):  0.000E+00 5.083E-04

     total cpu time spent up to now is    93950.1 secs

     total energy              =   -2382.20448823 Ry
     estimated scf accuracy    <       0.00515478 Ry

     total magnetization       =    16.00 Bohr mag/cell
     absolute magnetization    =    16.11 Bohr mag/cell

     iteration # 26     ecut=   100.00 Ry     beta= 0.40
     Davidson diagonalization with overlap
     c_bands:  1 eigenvalues not converged
     ethr =  1.30E-06,  avg # of iterations =  2.2

     negative rho (up, down):  0.000E+00 4.959E-04

     total cpu time spent up to now is    97735.2 secs

     total energy              =   -2382.20457438 Ry
     estimated scf accuracy    <       0.00166956 Ry

     total magnetization       =    16.00 Bohr mag/cell
     absolute magnetization    =    16.10 Bohr mag/cell

     iteration # 27     ecut=   100.00 Ry     beta= 0.40
     Davidson diagonalization with overlap
     ethr =  7.73E-07,  avg # of iterations =  2.0

     negative rho (up, down):  0.000E+00 5.095E-04

     total cpu time spent up to now is   101549.3 secs

     total energy              =   -2382.20508295 Ry
     estimated scf accuracy    <       0.02033694 Ry

     total magnetization       =    16.00 Bohr mag/cell
     absolute magnetization    =    16.10 Bohr mag/cell

     iteration # 28     ecut=   100.00 Ry     beta= 0.40
     Davidson diagonalization with overlap
     ethr =  7.73E-07,  avg # of iterations =  2.0

     negative rho (up, down):  0.000E+00 5.171E-04

     total cpu time spent up to now is   105323.1 secs

     total energy              =   -2382.20524762 Ry
     estimated scf accuracy    <       0.00385227 Ry

     total magnetization       =    16.00 Bohr mag/cell
     absolute magnetization    =    16.10 Bohr mag/cell

     iteration # 29     ecut=   100.00 Ry     beta= 0.40
     Davidson diagonalization with overlap
     ethr =  7.73E-07,  avg # of iterations =  1.5

     negative rho (up, down):  0.000E+00 5.245E-04

     total cpu time spent up to now is   109015.9 secs

     total energy              =   -2382.20561348 Ry
     estimated scf accuracy    <       0.00333826 Ry

     total magnetization       =    16.00 Bohr mag/cell
     absolute magnetization    =    16.10 Bohr mag/cell

     iteration # 30     ecut=   100.00 Ry     beta= 0.40
     Davidson diagonalization with overlap
     ethr =  7.73E-07,  avg # of iterations =  2.0

     negative rho (up, down):  0.000E+00 5.351E-04

     total cpu time spent up to now is   112820.5 secs

     total energy              =   -2382.20533703 Ry
     estimated scf accuracy    <       0.00233669 Ry

     total magnetization       =    16.00 Bohr mag/cell
     absolute magnetization    =    16.10 Bohr mag/cell

     iteration # 31     ecut=   100.00 Ry     beta= 0.40
     Davidson diagonalization with overlap
     ethr =  7.73E-07,  avg # of iterations =  2.0

     negative rho (up, down):  0.000E+00 5.366E-04

     total cpu time spent up to now is   116810.2 secs

     total energy              =   -2382.20637115 Ry
     estimated scf accuracy    <       0.00307466 Ry

     total magnetization       =    16.00 Bohr mag/cell
     absolute magnetization    =    16.09 Bohr mag/cell

     iteration # 32     ecut=   100.00 Ry     beta= 0.40
     Davidson diagonalization with overlap
     ethr =  7.73E-07,  avg # of iterations =  1.0

     negative rho (up, down):  0.000E+00 5.253E-04

     total cpu time spent up to now is   120385.7 secs

     total energy              =   -2382.20617980 Ry
     estimated scf accuracy    <       0.00382417 Ry

     total magnetization       =    16.00 Bohr mag/cell
     absolute magnetization    =    16.09 Bohr mag/cell

     iteration # 33     ecut=   100.00 Ry     beta= 0.40
     Davidson diagonalization with overlap
     ethr =  7.73E-07,  avg # of iterations =  1.5

     negative rho (up, down):  0.000E+00 5.212E-04

     total cpu time spent up to now is   124046.5 secs

     total energy              =   -2382.20636601 Ry
     estimated scf accuracy    <       0.00119506 Ry

     total magnetization       =    16.00 Bohr mag/cell
     absolute magnetization    =    16.09 Bohr mag/cell

     iteration # 34     ecut=   100.00 Ry     beta= 0.40
     Davidson diagonalization with overlap
     ethr =  5.53E-07,  avg # of iterations =  2.0

     negative rho (up, down):  0.000E+00 5.194E-04

     total cpu time spent up to now is   127868.6 secs

     total energy              =   -2382.20664922 Ry
     estimated scf accuracy    <       0.00296276 Ry

     total magnetization       =    16.00 Bohr mag/cell
     absolute magnetization    =    16.09 Bohr mag/cell

     iteration # 35     ecut=   100.00 Ry     beta= 0.40
     Davidson diagonalization with overlap
     ethr =  5.53E-07,  avg # of iterations =  2.0

     negative rho (up, down):  0.000E+00 5.214E-04

     total cpu time spent up to now is   131677.4 secs

     total energy              =   -2382.20682614 Ry
     estimated scf accuracy    <       0.00197468 Ry

     total magnetization       =    16.00 Bohr mag/cell
     absolute magnetization    =    16.09 Bohr mag/cell

     iteration # 36     ecut=   100.00 Ry     beta= 0.40
     Davidson diagonalization with overlap
     ethr =  5.53E-07,  avg # of iterations =  2.0

     negative rho (up, down):  0.000E+00 5.343E-04

     total cpu time spent up to now is   135441.2 secs

     total energy              =   -2382.20593726 Ry
     estimated scf accuracy    <       0.00127173 Ry

     total magnetization       =    16.00 Bohr mag/cell
     absolute magnetization    =    16.09 Bohr mag/cell

     iteration # 37     ecut=   100.00 Ry     beta= 0.40
     Davidson diagonalization with overlap
     ethr =  5.53E-07,  avg # of iterations =  2.0

     negative rho (up, down):  0.000E+00 5.364E-04

     total cpu time spent up to now is   139324.8 secs

     total energy              =   -2382.20700681 Ry
     estimated scf accuracy    <       0.00031935 Ry

     total magnetization       =    16.00 Bohr mag/cell
     absolute magnetization    =    16.08 Bohr mag/cell

     iteration # 38     ecut=   100.00 Ry     beta= 0.40
     Davidson diagonalization with overlap
     ethr =  1.48E-07,  avg # of iterations =  2.0

     negative rho (up, down):  0.000E+00 5.385E-04

     total cpu time spent up to now is   143201.7 secs

     total energy              =   -2382.20710762 Ry
     estimated scf accuracy    <       0.00015471 Ry

     total magnetization       =    16.00 Bohr mag/cell
     absolute magnetization    =    16.08 Bohr mag/cell

     iteration # 39     ecut=   100.00 Ry     beta= 0.40
     Davidson diagonalization with overlap
     ethr =  7.16E-08,  avg # of iterations =  2.0

     negative rho (up, down):  0.000E+00 5.420E-04

     total cpu time spent up to now is   147109.3 secs

     total energy              =   -2382.20710293 Ry
     estimated scf accuracy    <       0.00003289 Ry

     total magnetization       =    16.00 Bohr mag/cell
     absolute magnetization    =    16.08 Bohr mag/cell

     iteration # 40     ecut=   100.00 Ry     beta= 0.40
     Davidson diagonalization with overlap
     ethr =  1.52E-08,  avg # of iterations =  4.3

     negative rho (up, down):  0.000E+00 5.406E-04

     total cpu time spent up to now is   151862.2 secs

     total energy              =   -2382.20720427 Ry
     estimated scf accuracy    <       0.00003655 Ry

     total magnetization       =    16.00 Bohr mag/cell
     absolute magnetization    =    16.08 Bohr mag/cell

     iteration # 41     ecut=   100.00 Ry     beta= 0.40
     Davidson diagonalization with overlap
     ethr =  1.52E-08,  avg # of iterations =  2.0

     negative rho (up, down):  0.000E+00 5.400E-04

     total cpu time spent up to now is   155700.3 secs

     total energy              =   -2382.20721549 Ry
     estimated scf accuracy    <       0.00000157 Ry

     total magnetization       =    16.00 Bohr mag/cell
     absolute magnetization    =    16.08 Bohr mag/cell

     iteration # 42     ecut=   100.00 Ry     beta= 0.40
     Davidson diagonalization with overlap
     ethr =  7.25E-10,  avg # of iterations =  4.8

     negative rho (up, down):  0.000E+00 5.399E-04

     total cpu time spent up to now is   160071.7 secs

     total energy              =   -2382.20721758 Ry
     estimated scf accuracy    <       0.00000010 Ry

     total magnetization       =    16.00 Bohr mag/cell
     absolute magnetization    =    16.08 Bohr mag/cell

     iteration # 43     ecut=   100.00 Ry     beta= 0.40
     Davidson diagonalization with overlap
     ethr =  4.55E-11,  avg # of iterations =  4.8

     negative rho (up, down):  0.000E+00 5.399E-04

     total cpu time spent up to now is   165716.2 secs

     total energy              =   -2382.20721818 Ry
     estimated scf accuracy    <       0.00000007 Ry

     total magnetization       =    16.00 Bohr mag/cell
     absolute magnetization    =    16.08 Bohr mag/cell

     iteration # 44     ecut=   100.00 Ry     beta= 0.40
     Davidson diagonalization with overlap
     ethr =  3.40E-11,  avg # of iterations =  2.0

     negative rho (up, down):  0.000E+00 5.398E-04

     total cpu time spent up to now is   169758.4 secs

     total energy              =   -2382.20721841 Ry
     estimated scf accuracy    <       0.00000015 Ry

     total magnetization       =    16.00 Bohr mag/cell
     absolute magnetization    =    16.08 Bohr mag/cell

     iteration # 45     ecut=   100.00 Ry     beta= 0.40
     Davidson diagonalization with overlap
     ethr =  3.40E-11,  avg # of iterations =  2.0

     negative rho (up, down):  0.000E+00 5.399E-04

     total cpu time spent up to now is   174010.2 secs

     total energy              =   -2382.20721858 Ry
     estimated scf accuracy    <       0.00000005 Ry

     total magnetization       =    16.00 Bohr mag/cell
     absolute magnetization    =    16.08 Bohr mag/cell

     iteration # 46     ecut=   100.00 Ry     beta= 0.40
     Davidson diagonalization with overlap
     ethr =  2.52E-11,  avg # of iterations =  2.0

     negative rho (up, down):  0.000E+00 5.399E-04

     total cpu time spent up to now is   178055.2 secs

     total energy              =   -2382.20721863 Ry
     estimated scf accuracy    <          6.0E-09 Ry

     total magnetization       =    16.00 Bohr mag/cell
     absolute magnetization    =    16.08 Bohr mag/cell

     iteration # 47     ecut=   100.00 Ry     beta= 0.40
     Davidson diagonalization with overlap
     ethr =  2.79E-12,  avg # of iterations =  4.5

     negative rho (up, down):  0.000E+00 5.400E-04

     total cpu time spent up to now is   182981.2 secs

     total energy              =   -2382.20721866 Ry
     estimated scf accuracy    <          3.5E-09 Ry

     total magnetization       =    16.00 Bohr mag/cell
     absolute magnetization    =    16.08 Bohr mag/cell

     iteration # 48     ecut=   100.00 Ry     beta= 0.40
     Davidson diagonalization with overlap
     ethr =  1.61E-12,  avg # of iterations =  2.0

     negative rho (up, down):  0.000E+00 5.400E-04

     total cpu time spent up to now is   186945.8 secs

     total energy              =   -2382.20721866 Ry
     estimated scf accuracy    <          4.9E-10 Ry

     total magnetization       =    16.00 Bohr mag/cell
     absolute magnetization    =    16.08 Bohr mag/cell

     iteration # 49     ecut=   100.00 Ry     beta= 0.40
     Davidson diagonalization with overlap
     ethr =  2.25E-13,  avg # of iterations =  4.1

     negative rho (up, down):  0.000E+00 5.399E-04

     total cpu time spent up to now is   192073.1 secs

     total energy              =   -2382.20721866 Ry
     estimated scf accuracy    <          6.9E-10 Ry

     total magnetization       =    16.00 Bohr mag/cell
     absolute magnetization    =    16.08 Bohr mag/cell

     iteration # 50     ecut=   100.00 Ry     beta= 0.40
     Davidson diagonalization with overlap
     ethr =  2.25E-13,  avg # of iterations =  2.0

     negative rho (up, down):  0.000E+00 5.400E-04

     total cpu time spent up to now is   195886.4 secs

     total energy              =   -2382.20721866 Ry
     estimated scf accuracy    <          4.8E-10 Ry

     total magnetization       =    16.00 Bohr mag/cell
     absolute magnetization    =    16.08 Bohr mag/cell

     iteration # 51     ecut=   100.00 Ry     beta= 0.40
     Davidson diagonalization with overlap
     ethr =  2.24E-13,  avg # of iterations =  2.0

     negative rho (up, down):  0.000E+00 5.400E-04

     total cpu time spent up to now is   199953.4 secs

     total energy              =   -2382.20721866 Ry
     estimated scf accuracy    <          4.0E-10 Ry

     total magnetization       =    16.00 Bohr mag/cell
     absolute magnetization    =    16.08 Bohr mag/cell

     iteration # 52     ecut=   100.00 Ry     beta= 0.40
     Davidson diagonalization with overlap
     ethr =  1.87E-13,  avg # of iterations =  2.0

     negative rho (up, down):  0.000E+00 5.400E-04

     Magnetic moment per site:
     atom:    1    charge:    7.9594    magn:    0.0002    constr:    0.0000
     atom:    2    charge:    7.9594    magn:    0.0002    constr:    0.0000
     atom:    3    charge:    7.9594    magn:    0.0002    constr:    0.0000
     atom:    4    charge:    7.9594    magn:    0.0002    constr:    0.0000
     atom:    5    charge:   13.4431    magn:    3.3975    constr:    0.0000
     atom:    6    charge:   13.4431    magn:    3.3975    constr:    0.0000
     atom:    7    charge:   13.4431    magn:    3.3975    constr:    0.0000
     atom:    8    charge:   13.4431    magn:    3.3975    constr:    0.0000
     atom:    9    charge:    0.8443    magn:    0.0060    constr:    0.0000
     atom:   10    charge:    0.8443    magn:    0.0060    constr:    0.0000
     atom:   11    charge:    0.8443    magn:    0.0060    constr:    0.0000
     atom:   12    charge:    0.8443    magn:    0.0060    constr:    0.0000
     atom:   13    charge:    4.2563    magn:    0.0291    constr:    0.0000
     atom:   14    charge:    4.2563    magn:    0.0291    constr:    0.0000
     atom:   15    charge:    4.2563    magn:    0.0291    constr:    0.0000
     atom:   16    charge:    4.2564    magn:    0.0291    constr:    0.0000
     atom:   17    charge:    4.2174    magn:    0.0408    constr:    0.0000
     atom:   18    charge:    4.2174    magn:    0.0408    constr:    0.0000
     atom:   19    charge:    4.2174    magn:    0.0408    constr:    0.0000
     atom:   20    charge:    4.2175    magn:    0.0408    constr:    0.0000
     atom:   21    charge:    4.2449    magn:    0.0694    constr:    0.0000
     atom:   22    charge:    4.2449    magn:    0.0694    constr:    0.0000
     atom:   23    charge:    4.2449    magn:    0.0694    constr:    0.0000
     atom:   24    charge:    4.2449    magn:    0.0694    constr:    0.0000
     atom:   25    charge:    4.2449    magn:    0.0694    constr:    0.0000
     atom:   26    charge:    4.2449    magn:    0.0694    constr:    0.0000
     atom:   27    charge:    4.2449    magn:    0.0694    constr:    0.0000
     atom:   28    charge:    4.2449    magn:    0.0694    constr:    0.0000

     total cpu time spent up to now is   204023.9 secs

     End of self-consistent calculation

 ------ SPIN UP ------------


          k = 0.0000 0.0000 0.0000 ( 38253 PWs)   bands (ev):

   -81.7960 -81.7955 -81.7943 -81.7938 -48.7006 -48.6997 -48.6989 -48.6981
   -47.7462 -47.7458 -47.7446 -47.7439 -47.0863 -47.0856 -47.0846 -47.0838
   -43.5131 -43.5131 -43.5050 -43.5050 -15.7066 -15.6960 -15.5696 -15.5650
   -15.5242 -15.5229 -15.4979 -15.4959 -15.4485 -15.4484 -15.4285 -15.4284
   -14.9746 -14.8132 -14.6708 -14.5478 -12.4616 -12.4411 -12.4354 -12.4100
   -12.3980 -12.3840 -12.2916 -12.2514 -11.8870 -11.8722 -11.8642 -11.8117
    -2.5319  -2.2061  -1.9695  -1.9444  -0.7396  -0.4811  -0.3511  -0.2138
    -0.0319   0.0916   0.3023   0.3490   0.4016   0.4104   0.4118   0.6783
     1.5904   1.7515   2.0102   2.1267   2.3096   2.3556   2.3633   2.4082
     2.4309   2.5568   2.6858   2.8560   2.9609   2.9789   3.0120   3.2216
     3.2415   3.2502   3.3071   3.3940   3.4763   3.5521   3.6244   3.7610
     3.8220   3.8687   4.0094   4.2046   4.2536   4.3843   4.5187   4.5546
     4.7385   4.8437   5.0232   5.0887   5.0901   5.1346   5.1801   5.2181
     5.2931   5.4951   5.6369   5.7682   5.8902   5.9447   5.9510   6.1525
     6.2737   6.3120   6.3601   6.3778   9.4824  11.4103  11.7683  12.2339
    12.6022  13.3173  13.4722  13.9346  14.3640  14.3968  14.4257  14.5048
    14.5285  14.5915

     occupation numbers 
     1.0000   1.0000   1.0000   1.0000   1.0000   1.0000   1.0000   1.0000
     1.0000   1.0000   1.0000   1.0000   1.0000   1.0000   1.0000   1.0000
     1.0000   1.0000   1.0000   1.0000   1.0000   1.0000   1.0000   1.0000
     1.0000   1.0000   1.0000   1.0000   1.0000   1.0000   1.0000   1.0000
     1.0000   1.0000   1.0000   1.0000   1.0000   1.0000   1.0000   1.0000
     1.0000   1.0000   1.0000   1.0000   1.0000   1.0000   1.0000   1.0000
     1.0000   1.0000   1.0000   1.0000   1.0000   1.0000   1.0000   1.0000
     1.0000   1.0000   1.0000   1.0000   1.0000   1.0000   1.0000   1.0000
     1.0000   1.0000   1.0000   1.0000   1.0000   1.0000   1.0000   1.0000
     1.0000   1.0000   1.0000   1.0000   1.0000   1.0000   1.0000   1.0000
     1.0000   1.0000   1.0000   1.0000   1.0000   1.0000   1.0000   1.0000
     1.0000   1.0000   1.0000   1.0000   1.0000   1.0000   1.0000   1.0000
     1.0000   1.0000   1.0000   1.0000   1.0000   1.0000   1.0000   1.0000
     1.0000   1.0000   1.0000   1.0000   1.0000   1.0000   1.0000   1.0000
     1.0000   1.0000   1.0000   1.0000   0.0000   0.0000   0.0000   0.0000
     0.0000   0.0000   0.0000   0.0000   0.0000   0.0000   0.0000   0.0000
     0.0000   0.0000

          k = 0.0000 0.0000 0.2454 ( 38275 PWs)   bands (ev):

   -81.7960 -81.7955 -81.7943 -81.7938 -48.7006 -48.6997 -48.6989 -48.6981
   -47.7462 -47.7458 -47.7446 -47.7439 -47.0863 -47.0856 -47.0845 -47.0838
   -43.5131 -43.5131 -43.5050 -43.5050 -15.6998 -15.6901 -15.5740 -15.5697
   -15.5243 -15.5230 -15.5069 -15.5026 -15.4485 -15.4484 -15.4286 -15.4286
   -14.9429 -14.7920 -14.6744 -14.5586 -12.4733 -12.4453 -12.4352 -12.4263
   -12.3944 -12.3919 -12.2945 -12.2567 -11.9075 -11.8678 -11.8524 -11.8123
    -2.5151  -2.2056  -1.9817  -1.9374  -0.6764  -0.4527  -0.2860  -0.1529
    -0.0332   0.1077   0.2987   0.3672   0.3844   0.3990   0.4117   0.6569
     1.5868   1.7384   2.0159   2.0665   2.2775   2.3075   2.3114   2.4033
     2.4150   2.6158   2.6315   2.7990   2.9196   2.9637   3.0424   3.1198
     3.2178   3.3555   3.3762   3.3811   3.4428   3.5960   3.6170   3.7606
     3.7780   3.9183   4.0351   4.2323   4.2760   4.3842   4.5064   4.5510
     4.7268   4.8444   4.9644   5.0740   5.0908   5.1327   5.1393   5.2118
     5.3406   5.5174   5.6660   5.8063   5.8946   5.9623   5.9718   6.1204
     6.2819   6.2882   6.3391   6.3688   9.6353  11.4650  11.8528  12.2373
    12.6493  13.1513  13.6920  13.6922  14.1341  14.2387  14.3213  14.3485
    14.6743  14.6983

     occupation numbers 
     1.0000   1.0000   1.0000   1.0000   1.0000   1.0000   1.0000   1.0000
     1.0000   1.0000   1.0000   1.0000   1.0000   1.0000   1.0000   1.0000
     1.0000   1.0000   1.0000   1.0000   1.0000   1.0000   1.0000   1.0000
     1.0000   1.0000   1.0000   1.0000   1.0000   1.0000   1.0000   1.0000
     1.0000   1.0000   1.0000   1.0000   1.0000   1.0000   1.0000   1.0000
     1.0000   1.0000   1.0000   1.0000   1.0000   1.0000   1.0000   1.0000
     1.0000   1.0000   1.0000   1.0000   1.0000   1.0000   1.0000   1.0000
     1.0000   1.0000   1.0000   1.0000   1.0000   1.0000   1.0000   1.0000
     1.0000   1.0000   1.0000   1.0000   1.0000   1.0000   1.0000   1.0000
     1.0000   1.0000   1.0000   1.0000   1.0000   1.0000   1.0000   1.0000
     1.0000   1.0000   1.0000   1.0000   1.0000   1.0000   1.0000   1.0000
     1.0000   1.0000   1.0000   1.0000   1.0000   1.0000   1.0000   1.0000
     1.0000   1.0000   1.0000   1.0000   1.0000   1.0000   1.0000   1.0000
     1.0000   1.0000   1.0000   1.0000   1.0000   1.0000   1.0000   1.0000
     1.0000   1.0000   1.0000   1.0000   0.0000   0.0000   0.0000   0.0000
     0.0000   0.0000   0.0000   0.0000   0.0000   0.0000   0.0000   0.0000
     0.0000   0.0000

          k = 0.0000 0.0000 0.4908 ( 38314 PWs)   bands (ev):

   -81.7960 -81.7955 -81.7943 -81.7938 -48.7005 -48.6998 -48.6988 -48.6981
   -47.7462 -47.7458 -47.7446 -47.7439 -47.0863 -47.0856 -47.0845 -47.0839
   -43.5131 -43.5131 -43.5050 -43.5050 -15.6842 -15.6767 -15.5889 -15.5850
   -15.5244 -15.5234 -15.5178 -15.5114 -15.4485 -15.4484 -15.4290 -15.4289
   -14.8660 -14.7428 -14.6825 -14.5874 -12.5076 -12.4671 -12.4649 -12.4182
   -12.4158 -12.3840 -12.3031 -12.2721 -11.9313 -11.8831 -11.8283 -11.8087
    -2.4649  -2.1973  -2.0131  -1.9449  -0.4893  -0.3654  -0.1337  -0.0308
     0.0012   0.1504   0.2949   0.3131   0.3820   0.4350   0.4480   0.5959
     1.5719   1.7040   1.9193   2.0339   2.1196   2.2286   2.2930   2.3250
     2.4060   2.4998   2.6749   2.7733   2.8354   2.8875   2.9035   3.0986
     3.1310   3.2763   3.3679   3.4946   3.5415   3.6596   3.6923   3.7058
     3.8332   4.0057   4.0297   4.2897   4.3376   4.3823   4.5086   4.5366
     4.7052   4.8457   4.8949   4.9594   5.0293   5.0925   5.1933   5.1935
     5.4528   5.5936   5.7196   5.8853   5.9087   6.0091   6.0149   6.0636
     6.2175   6.2761   6.2878   6.3445  10.0383  11.6207  12.0194  12.2972
    12.8020  13.0089  13.2095  13.7850  13.8745  13.9632  14.1199  14.2993
    14.5687  14.6712

     occupation numbers 
     1.0000   1.0000   1.0000   1.0000   1.0000   1.0000   1.0000   1.0000
     1.0000   1.0000   1.0000   1.0000   1.0000   1.0000   1.0000   1.0000
     1.0000   1.0000   1.0000   1.0000   1.0000   1.0000   1.0000   1.0000
     1.0000   1.0000   1.0000   1.0000   1.0000   1.0000   1.0000   1.0000
     1.0000   1.0000   1.0000   1.0000   1.0000   1.0000   1.0000   1.0000
     1.0000   1.0000   1.0000   1.0000   1.0000   1.0000   1.0000   1.0000
     1.0000   1.0000   1.0000   1.0000   1.0000   1.0000   1.0000   1.0000
     1.0000   1.0000   1.0000   1.0000   1.0000   1.0000   1.0000   1.0000
     1.0000   1.0000   1.0000   1.0000   1.0000   1.0000   1.0000   1.0000
     1.0000   1.0000   1.0000   1.0000   1.0000   1.0000   1.0000   1.0000
     1.0000   1.0000   1.0000   1.0000   1.0000   1.0000   1.0000   1.0000
     1.0000   1.0000   1.0000   1.0000   1.0000   1.0000   1.0000   1.0000
     1.0000   1.0000   1.0000   1.0000   1.0000   1.0000   1.0000   1.0000
     1.0000   1.0000   1.0000   1.0000   1.0000   1.0000   1.0000   1.0000
     1.0000   1.0000   1.0000   1.0000   0.0000   0.0000   0.0000   0.0000
     0.0000   0.0000   0.0000   0.0000   0.0000   0.0000   0.0000   0.0000
     0.0000   0.0000

          k = 0.0000 0.0000 0.7363 ( 38338 PWs)   bands (ev):

   -81.7960 -81.7955 -81.7943 -81.7938 -48.7005 -48.6998 -48.6987 -48.6982
   -47.7462 -47.7458 -47.7446 -47.7439 -47.0862 -47.0856 -47.0845 -47.0839
   -43.5131 -43.5131 -43.5050 -43.5050 -15.6726 -15.6671 -15.6040 -15.6017
   -15.5245 -15.5239 -15.5172 -15.5123 -15.4485 -15.4484 -15.4294 -15.4293
   -14.7800 -14.6985 -14.6860 -14.6228 -12.5482 -12.5170 -12.4815 -12.4484
   -12.3926 -12.3682 -12.3169 -12.2957 -11.9454 -11.9074 -11.8087 -11.8006
    -2.3827  -2.1703  -2.0722  -1.9894  -0.2339  -0.2128  -0.0167  -0.0112
     0.1405   0.2153   0.2162   0.3062   0.3918   0.5085   0.5736   0.5774
     1.5259   1.6706   1.7241   1.9232   2.0674   2.1809   2.2135   2.2557
     2.3586   2.3756   2.4632   2.6748   2.8087   2.8711   2.9156   3.0197
     3.1357   3.1454   3.2711   3.4258   3.6945   3.7442   3.7856   3.8106
     3.8833   4.0655   4.0991   4.2386   4.3641   4.3962   4.5211   4.5890
     4.6996   4.8475   4.8541   4.8662   4.9354   5.0805   5.1748   5.2129
     5.6040   5.7223   5.7698   5.9233   5.9550   5.9733   6.0694   6.1026
     6.1043   6.1727   6.2810   6.3129  10.5798  11.8647  12.0055  12.5213
    12.7670  12.9260  13.0878  13.4098  13.4474  14.0145  14.0849  14.2148
    14.3120  14.5955

     occupation numbers 
     1.0000   1.0000   1.0000   1.0000   1.0000   1.0000   1.0000   1.0000
     1.0000   1.0000   1.0000   1.0000   1.0000   1.0000   1.0000   1.0000
     1.0000   1.0000   1.0000   1.0000   1.0000   1.0000   1.0000   1.0000
     1.0000   1.0000   1.0000   1.0000   1.0000   1.0000   1.0000   1.0000
     1.0000   1.0000   1.0000   1.0000   1.0000   1.0000   1.0000   1.0000
     1.0000   1.0000   1.0000   1.0000   1.0000   1.0000   1.0000   1.0000
     1.0000   1.0000   1.0000   1.0000   1.0000   1.0000   1.0000   1.0000
     1.0000   1.0000   1.0000   1.0000   1.0000   1.0000   1.0000   1.0000
     1.0000   1.0000   1.0000   1.0000   1.0000   1.0000   1.0000   1.0000
     1.0000   1.0000   1.0000   1.0000   1.0000   1.0000   1.0000   1.0000
     1.0000   1.0000   1.0000   1.0000   1.0000   1.0000   1.0000   1.0000
     1.0000   1.0000   1.0000   1.0000   1.0000   1.0000   1.0000   1.0000
     1.0000   1.0000   1.0000   1.0000   1.0000   1.0000   1.0000   1.0000
     1.0000   1.0000   1.0000   1.0000   1.0000   1.0000   1.0000   1.0000
     1.0000   1.0000   1.0000   1.0000   0.0000   0.0000   0.0000   0.0000
     0.0000   0.0000   0.0000   0.0000   0.0000   0.0000   0.0000   0.0000
     0.0000   0.0000

          k = 0.0000 0.0000 0.9817 ( 38334 PWs)   bands (ev):

   -81.7960 -81.7955 -81.7943 -81.7938 -48.7004 -48.6999 -48.6987 -48.6983
   -47.7462 -47.7458 -47.7446 -47.7439 -47.0862 -47.0856 -47.0845 -47.0839
   -43.5131 -43.5131 -43.5050 -43.5050 -15.6708 -15.6685 -15.6074 -15.6069
   -15.5245 -15.5243 -15.5118 -15.5100 -15.4485 -15.4485 -15.4296 -15.4295
   -14.7217 -14.6946 -14.6696 -14.6458 -12.5698 -12.5575 -12.4868 -12.4754
   -12.3628 -12.3485 -12.3360 -12.3237 -11.9448 -11.9305 -11.7972 -11.7951
    -2.2765  -2.1646  -2.1214  -2.0566  -0.0990  -0.0136   0.0234   0.0373
     0.1163   0.1315   0.3395   0.3462   0.4175   0.4383   0.7388   0.7464
     1.4606   1.5226   1.6644   1.7378   2.1225   2.1267   2.1787   2.1899
     2.1958   2.2477   2.4476   2.5343   2.8721   2.9138   2.9142   2.9382
     3.0925   3.1677   3.2063   3.3021   3.7708   3.8024   3.8247   3.8780
     3.9603   4.1021   4.2093   4.2168   4.3072   4.3446   4.5669   4.6154
     4.7231   4.7750   4.8540   4.8778   4.9236   5.0193   5.1830   5.2035
     5.7777   5.8209   5.8782   5.8797   5.9510   5.9730   5.9825   6.0353
     6.1258   6.1444   6.2716   6.2842  11.1601  11.6879  12.1781  12.4730
    12.8022  12.8836  13.0277  13.1299  13.5062  13.8903  14.0229  14.1090
    14.2657  14.4321

     occupation numbers 
     1.0000   1.0000   1.0000   1.0000   1.0000   1.0000   1.0000   1.0000
     1.0000   1.0000   1.0000   1.0000   1.0000   1.0000   1.0000   1.0000
     1.0000   1.0000   1.0000   1.0000   1.0000   1.0000   1.0000   1.0000
     1.0000   1.0000   1.0000   1.0000   1.0000   1.0000   1.0000   1.0000
     1.0000   1.0000   1.0000   1.0000   1.0000   1.0000   1.0000   1.0000
     1.0000   1.0000   1.0000   1.0000   1.0000   1.0000   1.0000   1.0000
     1.0000   1.0000   1.0000   1.0000   1.0000   1.0000   1.0000   1.0000
     1.0000   1.0000   1.0000   1.0000   1.0000   1.0000   1.0000   1.0000
     1.0000   1.0000   1.0000   1.0000   1.0000   1.0000   1.0000   1.0000
     1.0000   1.0000   1.0000   1.0000   1.0000   1.0000   1.0000   1.0000
     1.0000   1.0000   1.0000   1.0000   1.0000   1.0000   1.0000   1.0000
     1.0000   1.0000   1.0000   1.0000   1.0000   1.0000   1.0000   1.0000
     1.0000   1.0000   1.0000   1.0000   1.0000   1.0000   1.0000   1.0000
     1.0000   1.0000   1.0000   1.0000   1.0000   1.0000   1.0000   1.0000
     1.0000   1.0000   1.0000   1.0000   0.0000   0.0000   0.0000   0.0000
     0.0000   0.0000   0.0000   0.0000   0.0000   0.0000   0.0000   0.0000
     0.0000   0.0000

          k = 0.0000 0.2510 0.0000 ( 38299 PWs)   bands (ev):

   -81.7960 -81.7955 -81.7943 -81.7938 -48.7006 -48.6997 -48.6989 -48.6981
   -47.7462 -47.7458 -47.7446 -47.7439 -47.0863 -47.0856 -47.0845 -47.0838
   -43.5128 -43.5127 -43.5054 -43.5054 -15.6961 -15.6865 -15.5670 -15.5627
   -15.5272 -15.5258 -15.4945 -15.4927 -15.4653 -15.4637 -15.4320 -15.4320
   -14.9478 -14.8001 -14.6732 -14.5659 -12.4567 -12.4502 -12.4190 -12.4100
   -12.4047 -12.3906 -12.3077 -12.2647 -11.8772 -11.8685 -11.8593 -11.8136
    -2.4967  -2.1804  -1.9665  -1.9630  -0.6981  -0.4585  -0.3348  -0.2213
     0.0035   0.0920   0.2564   0.3292   0.4159   0.4352   0.4370   0.6634
     1.5994   1.7497   2.0408   2.0479   2.1506   2.3068   2.3145   2.3974
     2.5245   2.6082   2.7310   2.8542   2.8872   2.9169   3.0134   3.2491
     3.2761   3.2861   3.3596   3.4056   3.4651   3.5825   3.6294   3.7617
     3.7762   3.8802   3.9825   4.1723   4.2247   4.3537   4.5091   4.5851
     4.7178   4.8421   4.8739   4.9313   5.0931   5.2338   5.2478   5.2718
     5.2984   5.4598   5.7462   5.8020   5.8933   5.9203   5.9470   6.0876
     6.0982   6.3841   6.4037   6.4128   9.6529  11.5035  11.8733  12.1872
    12.6639  13.3898  13.4165  13.9006  14.3578  14.3872  14.4873  14.5020
    14.5784  14.6405

     occupation numbers 
     1.0000   1.0000   1.0000   1.0000   1.0000   1.0000   1.0000   1.0000
     1.0000   1.0000   1.0000   1.0000   1.0000   1.0000   1.0000   1.0000
     1.0000   1.0000   1.0000   1.0000   1.0000   1.0000   1.0000   1.0000
     1.0000   1.0000   1.0000   1.0000   1.0000   1.0000   1.0000   1.0000
     1.0000   1.0000   1.0000   1.0000   1.0000   1.0000   1.0000   1.0000
     1.0000   1.0000   1.0000   1.0000   1.0000   1.0000   1.0000   1.0000
     1.0000   1.0000   1.0000   1.0000   1.0000   1.0000   1.0000   1.0000
     1.0000   1.0000   1.0000   1.0000   1.0000   1.0000   1.0000   1.0000
     1.0000   1.0000   1.0000   1.0000   1.0000   1.0000   1.0000   1.0000
     1.0000   1.0000   1.0000   1.0000   1.0000   1.0000   1.0000   1.0000
     1.0000   1.0000   1.0000   1.0000   1.0000   1.0000   1.0000   1.0000
     1.0000   1.0000   1.0000   1.0000   1.0000   1.0000   1.0000   1.0000
     1.0000   1.0000   1.0000   1.0000   1.0000   1.0000   1.0000   1.0000
     1.0000   1.0000   1.0000   1.0000   1.0000   1.0000   1.0000   1.0000
     1.0000   1.0000   1.0000   1.0000   0.0000   0.0000   0.0000   0.0000
     0.0000   0.0000   0.0000   0.0000   0.0000   0.0000   0.0000   0.0000
     0.0000   0.0000

          k = 0.0000 0.2510 0.2454 ( 38259 PWs)   bands (ev):

   -81.7960 -81.7955 -81.7943 -81.7938 -48.7005 -48.6998 -48.6988 -48.6981
   -47.7462 -47.7458 -47.7446 -47.7439 -47.0863 -47.0856 -47.0845 -47.0839
   -43.5128 -43.5127 -43.5054 -43.5054 -15.6896 -15.6809 -15.5713 -15.5673
   -15.5276 -15.5265 -15.5036 -15.4996 -15.4625 -15.4618 -15.4324 -15.4323
   -14.9194 -14.7810 -14.6760 -14.5748 -12.4685 -12.4596 -12.4291 -12.4149
   -12.4003 -12.3957 -12.3112 -12.2683 -11.8966 -11.8635 -11.8503 -11.8140
    -2.4804  -2.1798  -1.9812  -1.9508  -0.6366  -0.4307  -0.2713  -0.1611
     0.0007   0.1071   0.2615   0.3416   0.4077   0.4189   0.4356   0.6429
     1.5937   1.7277   2.0060   2.0577   2.0950   2.2738   2.2799   2.3652
     2.5075   2.6507   2.7019   2.8010   2.8292   2.9263   3.0825   3.1554
     3.2558   3.3176   3.3786   3.4343   3.4459   3.6201   3.6227   3.7157
     3.7933   3.9241   4.0002   4.1838   4.2451   4.3640   4.5049   4.5750
     4.7069   4.8013   4.8747   4.9598   5.0977   5.1988   5.2279   5.2421
     5.3294   5.4743   5.7749   5.8394   5.8979   5.9378   5.9659   6.0550
     6.0921   6.3622   6.3961   6.4122   9.7990  11.5585  11.9614  12.2116
    12.6968  13.1947  13.6626  13.6666  14.2226  14.2330  14.3469  14.3631
    14.6927  14.7164

     occupation numbers 
     1.0000   1.0000   1.0000   1.0000   1.0000   1.0000   1.0000   1.0000
     1.0000   1.0000   1.0000   1.0000   1.0000   1.0000   1.0000   1.0000
     1.0000   1.0000   1.0000   1.0000   1.0000   1.0000   1.0000   1.0000
     1.0000   1.0000   1.0000   1.0000   1.0000   1.0000   1.0000   1.0000
     1.0000   1.0000   1.0000   1.0000   1.0000   1.0000   1.0000   1.0000
     1.0000   1.0000   1.0000   1.0000   1.0000   1.0000   1.0000   1.0000
     1.0000   1.0000   1.0000   1.0000   1.0000   1.0000   1.0000   1.0000
     1.0000   1.0000   1.0000   1.0000   1.0000   1.0000   1.0000   1.0000
     1.0000   1.0000   1.0000   1.0000   1.0000   1.0000   1.0000   1.0000
     1.0000   1.0000   1.0000   1.0000   1.0000   1.0000   1.0000   1.0000
     1.0000   1.0000   1.0000   1.0000   1.0000   1.0000   1.0000   1.0000
     1.0000   1.0000   1.0000   1.0000   1.0000   1.0000   1.0000   1.0000
     1.0000   1.0000   1.0000   1.0000   1.0000   1.0000   1.0000   1.0000
     1.0000   1.0000   1.0000   1.0000   1.0000   1.0000   1.0000   1.0000
     1.0000   1.0000   1.0000   1.0000   0.0000   0.0000   0.0000   0.0000
     0.0000   0.0000   0.0000   0.0000   0.0000   0.0000   0.0000   0.0000
     0.0000   0.0000

          k = 0.0000 0.2510 0.4908 ( 38306 PWs)   bands (ev):

   -81.7960 -81.7955 -81.7943 -81.7938 -48.7005 -48.6998 -48.6988 -48.6981
   -47.7462 -47.7458 -47.7446 -47.7439 -47.0862 -47.0856 -47.0845 -47.0839
   -43.5128 -43.5127 -43.5054 -43.5054 -15.6745 -15.6677 -15.5853 -15.5817
   -15.5284 -15.5280 -15.5132 -15.5080 -15.4599 -15.4597 -15.4333 -15.4332
   -14.8493 -14.7360 -14.6822 -14.5987 -12.5032 -12.4794 -12.4711 -12.4198
   -12.4002 -12.3891 -12.3180 -12.2800 -11.9184 -11.8790 -11.8299 -11.8107
    -2.4313  -2.1721  -2.0062  -1.9556  -0.4550  -0.3472  -0.1232  -0.0273
     0.0202   0.1440   0.2716   0.3295   0.3937   0.4397   0.4579   0.5866
     1.5676   1.6819   1.8827   1.9785   2.0758   2.2048   2.2176   2.2992
     2.4636   2.6008   2.6826   2.7269   2.8127   2.8851   2.9737   3.0736
     3.2142   3.2340   3.3436   3.5291   3.5394   3.6468   3.6956   3.7041
     3.8470   3.9882   4.0039   4.2091   4.3003   4.4043   4.4910   4.5571
     4.6853   4.7359   4.8767   4.9699   5.1108   5.1233   5.1876   5.2240
     5.4075   5.5191   5.8258   5.9116   5.9167   5.9678   5.9966   6.0209
     6.0539   6.3098   6.3765   6.4021  10.1876  11.7145  12.1432  12.3091
    12.8250  13.0659  13.2074  13.8546  13.9139  13.9538  14.1258  14.2964
    14.5195  14.6990

     occupation numbers 
     1.0000   1.0000   1.0000   1.0000   1.0000   1.0000   1.0000   1.0000
     1.0000   1.0000   1.0000   1.0000   1.0000   1.0000   1.0000   1.0000
     1.0000   1.0000   1.0000   1.0000   1.0000   1.0000   1.0000   1.0000
     1.0000   1.0000   1.0000   1.0000   1.0000   1.0000   1.0000   1.0000
     1.0000   1.0000   1.0000   1.0000   1.0000   1.0000   1.0000   1.0000
     1.0000   1.0000   1.0000   1.0000   1.0000   1.0000   1.0000   1.0000
     1.0000   1.0000   1.0000   1.0000   1.0000   1.0000   1.0000   1.0000
     1.0000   1.0000   1.0000   1.0000   1.0000   1.0000   1.0000   1.0000
     1.0000   1.0000   1.0000   1.0000   1.0000   1.0000   1.0000   1.0000
     1.0000   1.0000   1.0000   1.0000   1.0000   1.0000   1.0000   1.0000
     1.0000   1.0000   1.0000   1.0000   1.0000   1.0000   1.0000   1.0000
     1.0000   1.0000   1.0000   1.0000   1.0000   1.0000   1.0000   1.0000
     1.0000   1.0000   1.0000   1.0000   1.0000   1.0000   1.0000   1.0000
     1.0000   1.0000   1.0000   1.0000   1.0000   1.0000   1.0000   1.0000
     1.0000   1.0000   1.0000   1.0000   0.0000   0.0000   0.0000   0.0000
     0.0000   0.0000   0.0000   0.0000   0.0000   0.0000   0.0000   0.0000
     0.0000   0.0000

          k = 0.0000 0.2510 0.7363 ( 38323 PWs)   bands (ev):

   -81.7960 -81.7955 -81.7943 -81.7938 -48.7004 -48.6999 -48.6987 -48.6982
   -47.7462 -47.7458 -47.7446 -47.7439 -47.0862 -47.0856 -47.0845 -47.0839
   -43.5127 -43.5127 -43.5054 -43.5054 -15.6631 -15.6580 -15.5986 -15.5967
   -15.5285 -15.5281 -15.5133 -15.5092 -15.4590 -15.4589 -15.4346 -15.4345
   -14.7698 -14.6951 -14.6840 -14.6281 -12.5455 -12.5206 -12.4944 -12.4546
   -12.3813 -12.3706 -12.3273 -12.2993 -11.9326 -11.9019 -11.8131 -11.8042
    -2.3516  -2.1479  -2.0567  -1.9939  -0.2255  -0.1872  -0.0301   0.0280
     0.1482   0.1857   0.2658   0.2791   0.4133   0.4960   0.5778   0.5869
     1.5009   1.6482   1.6915   1.8274   2.0886   2.1527   2.1761   2.2389
     2.3773   2.4354   2.5055   2.6342   2.8293   2.8638   2.9568   3.0195
     3.0817   3.2005   3.2584   3.4504   3.6734   3.7366   3.7888   3.8166
     3.8880   4.0134   4.1045   4.1731   4.3461   4.4168   4.4820   4.5822
     4.6727   4.6785   4.8813   4.9423   5.0624   5.1268   5.1927   5.1937
     5.5226   5.5999   5.8733   5.8978   5.9249   5.9463   5.9868   6.0531
     6.0932   6.2437   6.3551   6.3822  10.7160  11.9580  12.1486  12.5561
    12.7870  12.9893  13.1138  13.4434  13.5150  13.9924  14.0864  14.2212
    14.3358  14.5492

     occupation numbers 
     1.0000   1.0000   1.0000   1.0000   1.0000   1.0000   1.0000   1.0000
     1.0000   1.0000   1.0000   1.0000   1.0000   1.0000   1.0000   1.0000
     1.0000   1.0000   1.0000   1.0000   1.0000   1.0000   1.0000   1.0000
     1.0000   1.0000   1.0000   1.0000   1.0000   1.0000   1.0000   1.0000
     1.0000   1.0000   1.0000   1.0000   1.0000   1.0000   1.0000   1.0000
     1.0000   1.0000   1.0000   1.0000   1.0000   1.0000   1.0000   1.0000
     1.0000   1.0000   1.0000   1.0000   1.0000   1.0000   1.0000   1.0000
     1.0000   1.0000   1.0000   1.0000   1.0000   1.0000   1.0000   1.0000
     1.0000   1.0000   1.0000   1.0000   1.0000   1.0000   1.0000   1.0000
     1.0000   1.0000   1.0000   1.0000   1.0000   1.0000   1.0000   1.0000
     1.0000   1.0000   1.0000   1.0000   1.0000   1.0000   1.0000   1.0000
     1.0000   1.0000   1.0000   1.0000   1.0000   1.0000   1.0000   1.0000
     1.0000   1.0000   1.0000   1.0000   1.0000   1.0000   1.0000   1.0000
     1.0000   1.0000   1.0000   1.0000   1.0000   1.0000   1.0000   1.0000
     1.0000   1.0000   1.0000   1.0000   0.0000   0.0000   0.0000   0.0000
     0.0000   0.0000   0.0000   0.0000   0.0000   0.0000   0.0000   0.0000
     0.0000   0.0000

          k = 0.0000 0.2510 0.9817 ( 38330 PWs)   bands (ev):

   -81.7960 -81.7955 -81.7943 -81.7938 -48.7004 -48.6999 -48.6987 -48.6983
   -47.7462 -47.7458 -47.7446 -47.7439 -47.0862 -47.0856 -47.0845 -47.0839
   -43.5127 -43.5127 -43.5054 -43.5053 -15.6613 -15.6591 -15.6011 -15.6008
   -15.5281 -15.5279 -15.5092 -15.5076 -15.4589 -15.4588 -15.4356 -15.4356
   -14.7154 -14.6908 -14.6685 -14.6471 -12.5690 -12.5592 -12.4978 -12.4840
   -12.3608 -12.3476 -12.3417 -12.3230 -11.9340 -11.9225 -11.8029 -11.8003
    -2.2496  -2.1426  -2.1053  -2.0504  -0.1027  -0.0328   0.0333   0.0826
     0.1351   0.1450   0.3275   0.3333   0.4261   0.4586   0.7459   0.7465
     1.4280   1.4932   1.6333   1.6806   2.0886   2.1375   2.1466   2.2036
     2.2274   2.2825   2.4636   2.5152   2.8456   2.9118   2.9303   2.9690
     3.0564   3.1391   3.2622   3.3425   3.7468   3.7800   3.8288   3.8758
     3.9530   4.0783   4.1529   4.2304   4.2882   4.3461   4.5306   4.5880
     4.6642   4.6712   4.8919   4.9125   5.0671   5.1131   5.1786   5.1902
[...]
     atom    3 type  2   force =     0.00000000    0.00000000    0.00000000
     atom    4 type  2   force =     0.00000000    0.00000000    0.00000000
     atom    5 type  1   force =    -0.04726324    0.00000000    0.05269019
     atom    6 type  1   force =     0.04724573    0.00000000    0.05269225
     atom    7 type  1   force =     0.04726324    0.00000000   -0.05269019
     atom    8 type  1   force =    -0.04724573    0.00000000   -0.05269225
     atom    9 type  4   force =    -0.05678188    0.00000000   -0.04528891
     atom   10 type  4   force =     0.05684056    0.00000000   -0.04534667
     atom   11 type  4   force =     0.05678188    0.00000000    0.04528891
     atom   12 type  4   force =    -0.05684056    0.00000000    0.04534667
     atom   13 type  3   force =     0.13087232    0.00000000   -1.52657060
     atom   14 type  3   force =    -0.13086033   -0.00000000   -1.52658152
     atom   15 type  3   force =    -0.13087232    0.00000000    1.52657060
     atom   16 type  3   force =     0.13086033   -0.00000000    1.52658152
     atom   17 type  3   force =     1.25178391    0.00000000   -0.59524282
     atom   18 type  3   force =    -1.25182759    0.00000000   -0.59529494
     atom   19 type  3   force =    -1.25178391    0.00000000    0.59524282
     atom   20 type  3   force =     1.25182759    0.00000000    0.59529494
     atom   21 type  3   force =    -0.70631669   -0.97260849    0.70985348
     atom   22 type  3   force =     0.70634681    0.97261706    0.70984151
     atom   23 type  3   force =     0.70631669   -0.97260849   -0.70985348
     atom   24 type  3   force =    -0.70634681    0.97261706   -0.70984151
     atom   25 type  3   force =     0.70631669    0.97260849   -0.70985348
     atom   26 type  3   force =    -0.70634681   -0.97261706   -0.70984151
     atom   27 type  3   force =    -0.70631669    0.97260849    0.70985348
     atom   28 type  3   force =     0.70634681   -0.97261706    0.70984151
     The ionic contribution  to forces
     atom    1 type  2   force =     0.00043650   -0.00007222    0.00018452
     atom    2 type  2   force =    -0.00023214    0.00018994    0.00005186
     atom    3 type  2   force =     0.00054767    0.00018906    0.00024626
     atom    4 type  2   force =    -0.00012098   -0.00007310   -0.00000988
     atom    5 type  1   force =     3.31494236   -0.00075338   -0.85738506
     atom    6 type  1   force =    -3.31300404    0.00073876   -0.85701205
     atom    7 type  1   force =    -3.31537174    0.00073876    0.85744611
     atom    8 type  1   force =     3.31310048   -0.00075338    0.85688334
     atom    9 type  4   force =    -1.64613120   -0.00017173    1.44668094
     atom   10 type  4   force =     1.64707902    0.00016004    1.44606624
     atom   11 type  4   force =     1.64625269    0.00016004   -1.44676221
     atom   12 type  4   force =    -1.64721698   -0.00017173   -1.44602865
     atom   13 type  3   force =    -3.38387760   -0.00023148    2.04515723
     atom   14 type  3   force =     3.38462357    0.00017917    2.04567526
     atom   15 type  3   force =     3.38411336    0.00017917   -2.04510169
     atom   16 type  3   force =    -3.38478063   -0.00023147   -2.04565826
     atom   17 type  3   force =    -1.59212742   -0.00023238    1.91005287
     atom   18 type  3   force =     1.59328564    0.00017479    1.91016399
     atom   19 type  3   force =     1.59191969    0.00017479   -1.91011800
     atom   20 type  3   force =    -1.59294476   -0.00023238   -1.91010680
     atom   21 type  3   force =     0.42672064    2.34599280   -1.64860915
     atom   22 type  3   force =    -0.42610718   -2.34578663   -1.64886199
     atom   23 type  3   force =    -0.42693747    2.34636859    1.64819587
     atom   24 type  3   force =     0.42607725   -2.34628450    1.64864375
     atom   25 type  3   force =    -0.42682035   -2.34594531    1.64840981
     atom   26 type  3   force =     0.42597204    2.34588060    1.64884832
     atom   27 type  3   force =     0.42682586   -2.34639671   -1.64840457
     atom   28 type  3   force =    -0.42622430    2.34620991   -1.64864805
     The local contribution  to forces
     atom    1 type  2   force =    -0.00000000   -0.00000000    0.00000000
     atom    2 type  2   force =    -0.00506755   -0.00014978   -0.00226137
     atom    3 type  2   force =     0.00007608   -0.00190636    0.00004252
     atom    4 type  2   force =    -0.00499147   -0.00175658   -0.00230389
     atom    5 type  1   force =    -3.27637667   -0.00889726    0.79900399
     atom    6 type  1   force =     3.25273652   -0.00222432    0.79848189
     atom    7 type  1   force =     3.25289304   -0.00222431   -0.80978976
     atom    8 type  1   force =    -3.27235562   -0.00889725   -0.80937670
     atom    9 type  4   force =     1.62832712   -0.00002055   -1.40836497
     atom   10 type  4   force =    -1.62933593   -0.00000514   -1.40762068
     atom   11 type  4   force =    -1.62840635   -0.00000514    1.40839686
     atom   12 type  4   force =     1.62932338   -0.00002053    1.40779993
     atom   13 type  3   force =     3.25747815   -0.00206623   -0.51336220
     atom   14 type  3   force =    -3.26328782   -0.00051656   -0.51404522
     atom   15 type  3   force =    -3.26246293   -0.00051655    0.51110571
     atom   16 type  3   force =     3.25808470   -0.00206624    0.51137539
     atom   17 type  3   force =     0.39633306   -0.00204352   -1.34419990
     atom   18 type  3   force =    -0.40177473   -0.00051088   -1.34444980
     atom   19 type  3   force =    -0.40066923   -0.00051088    1.34207448
     atom   20 type  3   force =     0.39720314   -0.00204354    1.34180443
     atom   21 type  3   force =     0.28330603   -1.34408421    0.93259558
     atom   22 type  3   force =    -0.28933474    1.34203821    0.93294960
     atom   23 type  3   force =    -0.28870604   -1.34319797   -0.93501884
     atom   24 type  3   force =     0.28393353    1.34062678   -0.93504543
     atom   25 type  3   force =    -0.28865622    1.34232958   -0.93495443
     atom   26 type  3   force =     0.28413278   -1.34410032   -0.93530313
     atom   27 type  3   force =     0.28310676    1.34061068    0.93233788
     atom   28 type  3   force =    -0.28938456   -1.34290659    0.93301402
     The core correction contribution to forces
     atom    1 type  2   force =     0.00000000    0.00000000    0.00000000
     atom    2 type  2   force =     0.00000000    0.00000000    0.00000000
     atom    3 type  2   force =     0.00000000    0.00000000    0.00000000
     atom    4 type  2   force =     0.00000000    0.00000000    0.00000000
     atom    5 type  1   force =     0.00348202    0.00026864   -0.00170973
     atom    6 type  1   force =    -0.00273456    0.00006716   -0.00172217
     atom    7 type  1   force =    -0.00266120    0.00006717    0.00211368
     atom    8 type  1   force =     0.00340738    0.00026864    0.00210137
     atom    9 type  4   force =     0.00596167    0.00000599    0.00217527
     atom   10 type  4   force =    -0.00595252    0.00000150    0.00218200
     atom   11 type  4   force =    -0.00594711    0.00000150   -0.00216762
     atom   12 type  4   force =     0.00596797    0.00000600   -0.00217236
     atom   13 type  3   force =    -0.00179326   -0.00000113    0.01295118
     atom   14 type  3   force =     0.00178893   -0.00000028    0.01295142
     atom   15 type  3   force =     0.00178863   -0.00000028   -0.01295622
     atom   16 type  3   force =    -0.00179265   -0.00000113   -0.01295473
     atom   17 type  3   force =    -0.01125638   -0.00000096    0.00611996
     atom   18 type  3   force =     0.01124648   -0.00000024    0.00611868
     atom   19 type  3   force =     0.01124777   -0.00000024   -0.00612013
     atom   20 type  3   force =    -0.01125645   -0.00000096   -0.00612186
     atom   21 type  3   force =     0.00600029    0.00776904   -0.00631806
     atom   22 type  3   force =    -0.00600570   -0.00777392   -0.00631963
     atom   23 type  3   force =    -0.00600431    0.00777233    0.00631761
     atom   24 type  3   force =     0.00600131   -0.00777378    0.00631620
     atom   25 type  3   force =    -0.00600463   -0.00777355    0.00631772
     atom   26 type  3   force =     0.00600001    0.00776890    0.00631578
     atom   27 type  3   force =     0.00600159   -0.00777392   -0.00631848
     atom   28 type  3   force =    -0.00600537    0.00777270   -0.00631952
     The Hubbard contrib.    to forces
     atom    1 type  2   force =     0.00000000    0.00000000    0.00000000
     atom    2 type  2   force =     0.00000000    0.00000000    0.00000000
     atom    3 type  2   force =     0.00000000    0.00000000    0.00000000
     atom    4 type  2   force =     0.00000000    0.00000000    0.00000000
     atom    5 type  1   force =     0.00000000    0.00000000    0.00000000
     atom    6 type  1   force =     0.00000000    0.00000000    0.00000000
     atom    7 type  1   force =     0.00000000    0.00000000    0.00000000
     atom    8 type  1   force =     0.00000000    0.00000000    0.00000000
     atom    9 type  4   force =     0.00000000    0.00000000    0.00000000
     atom   10 type  4   force =     0.00000000    0.00000000    0.00000000
     atom   11 type  4   force =     0.00000000    0.00000000    0.00000000
     atom   12 type  4   force =     0.00000000    0.00000000    0.00000000
     atom   13 type  3   force =     0.00000000    0.00000000    0.00000000
     atom   14 type  3   force =     0.00000000    0.00000000    0.00000000
     atom   15 type  3   force =     0.00000000    0.00000000    0.00000000
     atom   16 type  3   force =     0.00000000    0.00000000    0.00000000
     atom   17 type  3   force =     0.00000000    0.00000000    0.00000000
     atom   18 type  3   force =     0.00000000    0.00000000    0.00000000
     atom   19 type  3   force =     0.00000000    0.00000000    0.00000000
     atom   20 type  3   force =     0.00000000    0.00000000    0.00000000
     atom   21 type  3   force =     0.00000000    0.00000000    0.00000000
     atom   22 type  3   force =     0.00000000    0.00000000    0.00000000
     atom   23 type  3   force =     0.00000000    0.00000000    0.00000000
     atom   24 type  3   force =     0.00000000    0.00000000    0.00000000
     atom   25 type  3   force =     0.00000000    0.00000000    0.00000000
     atom   26 type  3   force =     0.00000000    0.00000000    0.00000000
     atom   27 type  3   force =     0.00000000    0.00000000    0.00000000
     atom   28 type  3   force =     0.00000000    0.00000000    0.00000000
     The SCF correction term to forces
     atom    1 type  2   force =    -0.00000000    0.00000000   -0.00000000
     atom    2 type  2   force =     0.00000000   -0.00000000    0.00000000
     atom    3 type  2   force =    -0.00000000    0.00000000   -0.00000000
     atom    4 type  2   force =     0.00000000    0.00000000    0.00000000
     atom    5 type  1   force =    -0.00000062    0.00000000   -0.00000100
     atom    6 type  1   force =     0.00000017    0.00000000    0.00000009
     atom    7 type  1   force =     0.00000063    0.00000000    0.00000100
     atom    8 type  1   force =    -0.00000016    0.00000001   -0.00000009
     atom    9 type  4   force =     0.00000006    0.00000000    0.00000028
     atom   10 type  4   force =    -0.00000044   -0.00000000    0.00000010
     atom   11 type  4   force =    -0.00000006   -0.00000000   -0.00000028
     atom   12 type  4   force =     0.00000044    0.00000000   -0.00000010
     atom   13 type  3   force =     0.00000070    0.00000000    0.00000079
     atom   14 type  3   force =    -0.00000032   -0.00000000   -0.00000009
     atom   15 type  3   force =    -0.00000070   -0.00000000   -0.00000079
     atom   16 type  3   force =     0.00000033    0.00000000    0.00000009
     atom   17 type  3   force =    -0.00000073    0.00000000   -0.00000017
     atom   18 type  3   force =     0.00000009   -0.00000000    0.00000012
     atom   19 type  3   force =     0.00000073    0.00000000    0.00000018
     atom   20 type  3   force =    -0.00000009    0.00000000   -0.00000012
     atom   21 type  3   force =     0.00000058   -0.00000050   -0.00000053
     atom   22 type  3   force =    -0.00000074   -0.00000133    0.00000035
     atom   23 type  3   force =    -0.00000057   -0.00000050    0.00000053
     atom   24 type  3   force =     0.00000074   -0.00000133   -0.00000035
     atom   25 type  3   force =    -0.00000058    0.00000050    0.00000053
     atom   26 type  3   force =     0.00000074    0.00000133   -0.00000035
     atom   27 type  3   force =     0.00000058    0.00000050   -0.00000053
     atom   28 type  3   force =    -0.00000074    0.00000133    0.00000035

     Total force =     0.213989     Total SCF correction =     0.000005


     Computing stress (Cartesian axis) and pressure


     negative rho (up, down):  0.000E+00 5.400E-04
          total   stress  (Ry/bohr**3)                   (kbar)     P=       -5.27
  -0.00045588   0.00000000   0.00000003          -67.06        0.00        0.00
   0.00000000   0.00022455   0.00000000            0.00       33.03        0.00
   0.00000003   0.00000000   0.00012390            0.00        0.00       18.23

     kinetic stress (kbar)  30552.79      0.00     -0.00
                                0.00  30534.83      0.00
                               -0.00      0.00  30628.04

     local   stress (kbar)  -3736.13     -0.10     -0.00
                               -0.10  -6919.23     -0.00
                               -0.00     -0.00  -2258.95

     nonloc. stress (kbar)  -9142.23      0.00      0.00
                                0.00  -9228.88      0.00
                                0.00      0.00  -9083.36

     hartree stress (kbar)  13939.36      0.00     -0.01
                                0.00  15218.93      0.00
                               -0.01      0.00  13062.30

     exc-cor stress (kbar)  -3469.65      0.00      0.00
                                0.00  -3473.45     -0.00
                                0.00     -0.00  -3465.28

     corecor stress (kbar)  -2970.04     -0.00     -0.00
                               -0.00  -2956.58      0.00
                               -0.00      0.00  -2979.39

     ewald   stress (kbar) -25241.17      0.09      0.01
                                0.09 -23142.60      0.00
                                0.01      0.00 -25885.14

     hubbard stress (kbar)      0.00      0.00      0.00
                                0.00      0.00      0.00
                                0.00      0.00      0.00

     DFT-D   stress (kbar)      0.00      0.00      0.00
                                0.00      0.00      0.00
                                0.00      0.00      0.00

     XDM     stress (kbar)      0.00      0.00      0.00
                                0.00      0.00      0.00
                                0.00      0.00      0.00

     dft-nl  stress (kbar)      0.00      0.00      0.00
                                0.00      0.00      0.00
                                0.00      0.00      0.00

     TS-vdW  stress (kbar)      0.00      0.00      0.00
                                0.00      0.00      0.00
                                0.00      0.00      0.00



     init_run     :   1357.40s CPU   1631.94s WALL (       1 calls)
     electrons    : 159428.34s CPU 202368.25s WALL (       1 calls)
     forces       :    201.99s CPU    247.64s WALL (       1 calls)
     stress       :    804.34s CPU    808.08s WALL (       1 calls)

     Called by init_run:
     wfcinit      :   1339.09s CPU   1607.53s WALL (       1 calls)
     wfcinit:atom :      1.07s CPU      1.31s WALL (     184 calls)
     wfcinit:wfcr :   1332.14s CPU   1599.15s WALL (     184 calls)
     potinit      :      7.00s CPU      9.72s WALL (       1 calls)
     hinit0       :      7.72s CPU      9.59s WALL (       1 calls)

     Called by electrons:
     c_bands      : 131979.30s CPU 168129.15s WALL (      52 calls)
     sum_band     :  27047.78s CPU  33713.34s WALL (      52 calls)
     v_of_rho     :    115.44s CPU    142.70s WALL (      53 calls)
     v_h          :      7.65s CPU      9.78s WALL (      53 calls)
     v_xc         :    112.76s CPU    137.91s WALL (      55 calls)
     newd         :    134.58s CPU    193.25s WALL (      53 calls)
     PAW_pot      :     51.68s CPU     64.48s WALL (      53 calls)
     mix_rho      :     75.05s CPU     94.51s WALL (      52 calls)

     Called by c_bands:
     init_us_2    :    179.04s CPU    242.01s WALL (   19688 calls)
     cegterg      : 130774.17s CPU 166561.92s WALL (    9568 calls)

     Called by sum_band:
     sum_band:wei :      0.52s CPU      0.74s WALL (      52 calls)
     sum_band:loo :  26688.20s CPU  33229.81s WALL (      52 calls)
     sum_band:buf :     51.71s CPU     57.69s WALL (    9568 calls)
     sum_band:ini :     76.67s CPU    108.65s WALL (    9568 calls)
     sum_band:cal :   2270.42s CPU   2800.61s WALL (    9568 calls)
     sum_band:bec :      6.95s CPU      7.71s WALL (    9568 calls)
     addusdens    :    292.72s CPU    407.66s WALL (      52 calls)
     addusd:skk   :      1.67s CPU      2.27s WALL (     156 calls)
     addusd:dgemm :     88.86s CPU    144.91s WALL (     312 calls)
     addusd:qvan2 :    197.17s CPU    252.95s WALL (     312 calls)

     Called by *egterg:
     cdiaghg      :   3089.06s CPU   3997.71s WALL (   31406 calls)
     cegterg:over :   5811.19s CPU   7247.02s WALL (   21838 calls)
     cegterg:upda :   1368.65s CPU   1781.88s WALL (   21838 calls)
     cegterg:last :   3081.78s CPU   4015.20s WALL (   16178 calls)
     h_psi        : 110626.53s CPU 140965.55s WALL (   31590 calls)
     s_psi        :   2926.00s CPU   3782.01s WALL (   31590 calls)
     g_psi        :     20.72s CPU     26.44s WALL (   21838 calls)

     Called by h_psi:
     h_psi:calbec :   5331.44s CPU   6702.14s WALL (   31590 calls)
     vloc_psi     : 102243.79s CPU 130248.12s WALL (   31590 calls)
     add_vuspsi   :   2975.52s CPU   3927.49s WALL (   31590 calls)

     General routines
     calbec       :   8035.06s CPU   9979.16s WALL (   42078 calls)
     fft          :    132.16s CPU    162.48s WALL (    1363 calls)
     ffts         :     15.72s CPU     20.11s WALL (     210 calls)
     fftw         : 126014.09s CPU 159962.04s WALL ( 6706308 calls)
     interpolate  :     17.11s CPU     22.30s WALL (     106 calls)

     Parallel routines
     fft_scatt_xy :    723.58s CPU    726.79s WALL ( 6707881 calls)
     fft_scatt_yz : 121805.09s CPU 155696.64s WALL ( 6707881 calls)

     PAW routines
     PAW_pot      :     51.68s CPU     64.48s WALL (      53 calls)
     PAW_symme    :      4.49s CPU      5.66s WALL (     105 calls)

     PWSCF        :   1d20h56m CPU   2d 8h57m WALL


   This run was terminated on:   8:52: 2   3Feb2023            

=------------------------------------------------------------------------------=
   JOB DONE.
=------------------------------------------------------------------------------=
Note: The following floating-point exceptions are signalling: IEEE_UNDERFLOW_FLAG IEEE_DENORMAL
Note: The following floating-point exceptions are signalling: IEEE_DENORMAL
Note: The following floating-point exceptions are signalling: IEEE_DENORMAL
Note: The following floating-point exceptions are signalling: IEEE_INVALID_FLAG IEEE_DENORMAL
Note: The following floating-point exceptions are signalling: IEEE_DENORMAL
Note: The following floating-point exceptions are signalling: IEEE_DENORMAL
Note: The following floating-point exceptions are signalling: IEEE_INVALID_FLAG IEEE_DENORMAL
Note: The following floating-point exceptions are signalling: IEEE_DENORMAL
Note: The following floating-point exceptions are signalling: IEEE_INVALID_FLAG IEEE_DENORMAL
