ITEM: TIMESTEP
5000
ITEM: NUMBER OF ATOMS
15
ITEM: BOX BOUNDS xy xz yz pp pp pp
-3.0859088623885738e+00 4.5810458274257897e+00 -2.1234536776961201e+00
-9.6667313695221946e-01 7.1491504068980190e+00 -1.5936290272666607e+00
-1.1946226595784593e-01 4.5602452632078627e+00 1.5148297621338347e+00
ITEM: ATOMS id type x y z
14 2 0.543472 1.96039 2.12775
6 1 1.78337 -0.518605 0.0259817
9 1 -1.02374 1.86355 4.52717
4 1 0.379985 2.48554 4.41973
7 1 -1.03165 3.52273 4.16882
8 1 -0.975533 5.07909 4.36628
5 1 -2.0745 6.04958 4.45513
15 2 2.5811 1.81232 1.96256
3 1 1.56147 3.11494 4.32088
13 1 1.42497 1.38772 4.37926
2 1 0.465659 5.50367 4.48032
10 1 0.170518 4.07288 4.43023
11 1 0.819001 6.99906 4.28867
12 1 -0.653106 6.53248 4.42798
1 1 1.67794 4.62487 4.34115
