ITEM: TIMESTEP
1500
ITEM: NUMBER OF ATOMS
15
ITEM: BOX BOUNDS xy xz yz pp pp pp
-3.0285831587198695e+00 4.7091088487794295e+00 -1.8843831114572800e+00
-5.9508431028984266e-01 6.8285890460822021e+00 -1.6473108684831603e+00
-1.9828089696359541e-01 4.6390638942136011e+00 1.5658572279803753e+00
ITEM: ATOMS id type x y z
14 2 -0.648229 2.29863 1.96848
11 1 0.192185 0.193124 0.0434574
4 1 1.95986 0.295673 -0.0956181
9 1 -0.951158 3.0395 4.44697
2 1 -1.32716 4.7328 -0.0360833
6 1 -1.7026 5.83078 4.19329
8 1 -0.632968 4.98366 4.02903
15 2 1.42755 2.29165 2.083
3 1 3.12823 1.23 -0.105046
7 1 0.456063 3.46657 4.3124
12 1 2.19319 5.35065 1.53959
13 1 1.24704 5.07615 0.00143078
10 1 0.784428 5.07318 4.00921
1 1 1.8849 4.06838 4.18034
5 1 1.83258 5.01368 2.76151
