ITEM: TIMESTEP
3500
ITEM: NUMBER OF ATOMS
15
ITEM: BOX BOUNDS xy xz yz pp pp pp
-3.0678045630223112e+00 4.5626671513018779e+00 -2.1148475493219530e+00
-9.5329657958267111e-01 7.1442152453905754e+00 -1.6025095323984822e+00
-1.3250111189287095e-01 4.5732841091428806e+00 1.5232711579959262e+00
ITEM: ATOMS id type x y z
14 2 0.190114 2.64423 2.04617
6 1 -0.193878 0.725105 4.56618
7 1 -0.581102 3.33116 4.28496
9 1 -1.25223 1.5969 4.39029
4 1 0.305778 2.28977 4.50434
8 1 -0.620234 5.33809 4.5181
5 1 -2.24952 6.00592 4.48021
1 1 -1.56277 4.62475 4.4486
15 2 2.15245 2.3952 1.97792
13 1 1.23099 1.3855 4.40661
10 1 0.801699 3.7058 4.4183
3 1 2.04215 3.01956 4.18538
12 1 0.645837 5.21986 -0.237109
2 1 0.694375 5.22121 4.36569
11 1 0.290757 6.72096 4.51578
