
     Program PWSCF v.6.7MaX starts on 19Dec2022 at 16:40: 1 

     This program is part of the open-source Quantum ESPRESSO suite
     for quantum simulation of materials; please cite
         "P. Giannozzi et al., J. Phys.:Condens. Matter 21 395502 (2009);
         "P. Giannozzi et al., J. Phys.:Condens. Matter 29 465901 (2017);
          URL http://www.quantum-espresso.org", 
     in publications or presentations arising from this work. More details at
     http://www.quantum-espresso.org/quote

     Parallel version (MPI), running on    12 processors

     MPI processes distributed on     1 nodes
     R & G space division:  proc/nbgrp/npool/nimage =      12
     Reading input from scale_1da-05.in

     Current dimensions of program PWSCF are:
     Max number of different atomic species (ntypx) = 10
     Max number of k-points (npk) =  40000
     Max angular momentum in pseudopotentials (lmaxx) =  3
     Message from routine read_pp_mesh:
     mesh size missing, using the one in header
     file Fe.pbe-spn-kjpaw_psl.0.2.1.UPF: wavefunction(s)  3D renormalized
     file O.pbe-n-kjpaw_psl.0.1.UPF: wavefunction(s)  2P renormalized

     Subspace diagonalization in iterative solution of the eigenvalue problem:
     a serial algorithm will be used

     Message from routine setup:
     using ibrav=0 with symmetry is DISCOURAGED, use correct ibrav instead

     Parallelization info
     --------------------
     sticks:   dense  smooth     PW     G-vecs:    dense   smooth      PW
     Min        1738     643    174               113304    25531    3584
     Max        1739     644    175               113306    25534    3586
     Sum       20861    7725   2091              1359665   306383   43025



     bravais-lattice index     =            0
     lattice parameter (alat)  =      20.6483  a.u.
     unit-cell volume          =    2268.3757 (a.u.)^3
     number of atoms/cell      =           25
     number of atomic types    =            4
     number of electrons       =       189.00
     number of Kohn-Sham states=          114
     kinetic-energy cutoff     =     100.0000  Ry
     charge density cutoff     =    1080.0000  Ry
     scf convergence threshold =      2.0E-10
     mixing beta               =       0.4000
     number of iterations used =            8  plain     mixing
     Exchange-correlation= PBE
                           (   1   4   3   4   0   0   0)

     celldm(1)=  20.648310  celldm(2)=   0.000000  celldm(3)=   0.000000
     celldm(4)=   0.000000  celldm(5)=   0.000000  celldm(6)=   0.000000

     crystal axes: (cart. coord. in units of alat)
               a(1) = (   1.000000   0.000000   0.000000 )  
               a(2) = (   0.000000   0.569133   0.000000 )  
               a(3) = (   0.000000   0.000000   0.452739 )  

     reciprocal axes: (cart. coord. in units 2 pi/alat)
               b(1) = (  1.000000  0.000000  0.000000 )  
               b(2) = (  0.000000  1.757058  0.000000 )  
               b(3) = (  0.000000  0.000000  2.208780 )  


     PseudoPot. # 1 for Fe read from file:
     /opt/QEpot/SSSP_precision_pseudos/Fe.pbe-spn-kjpaw_psl.0.2.1.UPF
     MD5 check sum: e86618425769142926afa95317d90200
     Pseudo is Projector augmented-wave + core cor, Zval = 16.0
     Generated using "atomic" code by A. Dal Corso  v.5.0.99 svn rev. 10869
     Shape of augmentation charge: PSQ
     Using radial grid of 1191 points,  6 beta functions with: 
                l(1) =   0
                l(2) =   0
                l(3) =   1
                l(4) =   1
                l(5) =   2
                l(6) =   2
     Q(r) pseudized with 0 coefficients 


     PseudoPot. # 2 for Na read from file:
     /opt/QEpot/SSSP_precision_pseudos/Na_ONCV_PBE-1.0.oncvpsp.upf
     MD5 check sum: 24a298df0a6742ae313db96548fdb2a4
     Pseudo is Norm-conserving, Zval =  9.0
     Generated using ONCVPSP code by D. R. Hamann
     Using radial grid of 1992 points,  4 beta functions with: 
                l(1) =   0
                l(2) =   0
                l(3) =   1
                l(4) =   1

     PseudoPot. # 3 for O  read from file:
     /opt/QEpot/SSSP_precision_pseudos/O.pbe-n-kjpaw_psl.0.1.UPF
     MD5 check sum: 0234752ac141de4415c5fc33072bef88
     Pseudo is Projector augmented-wave + core cor, Zval =  6.0
     Generated using "atomic" code by A. Dal Corso  v.5.0.99 svn rev. 10869
     Shape of augmentation charge: BESSEL
     Using radial grid of 1095 points,  4 beta functions with: 
                l(1) =   0
                l(2) =   0
                l(3) =   1
                l(4) =   1
     Q(r) pseudized with 0 coefficients 


     PseudoPot. # 4 for P  read from file:
     /opt/QEpot/SSSP_precision_pseudos/P.pbe-n-rrkjus_psl.1.0.0.UPF
     MD5 check sum: 8b930f418f0a4573dca56cd030ffe088
     Pseudo is Ultrasoft + core correction, Zval =  5.0
     Generated using "atomic" code by A. Dal Corso  v.5.1
     Using radial grid of 1147 points,  6 beta functions with: 
                l(1) =   0
                l(2) =   0
                l(3) =   1
                l(4) =   1
                l(5) =   2
                l(6) =   2
     Q(r) pseudized with 0 coefficients 


     atomic species   valence    mass     pseudopotential
        Fe            16.00    55.84500     Fe( 1.00)
        Na             9.00    22.98977     Na( 1.00)
        O              6.00    15.99940     O ( 1.00)
        P              5.00    30.97376     P ( 1.00)

     Starting magnetic structure 
     atomic species   magnetization
        Fe           0.312
        Na           0.000
        O            0.000
        P            0.000

      2 Sym. Ops., with inversion, found


                                    s                        frac. trans.

      isym =  1     identity                                     

 cryst.   s( 1) = (     1          0          0      )
                  (     0          1          0      )
                  (     0          0          1      )

 cart.    s( 1) = (  1.0000000  0.0000000  0.0000000 )
                  (  0.0000000  1.0000000  0.0000000 )
                  (  0.0000000  0.0000000  1.0000000 )


      isym =  2     inversion                                    

 cryst.   s( 2) = (    -1          0          0      )
                  (     0         -1          0      )
                  (     0          0         -1      )

 cart.    s( 2) = ( -1.0000000  0.0000000  0.0000000 )
                  (  0.0000000 -1.0000000  0.0000000 )
                  (  0.0000000  0.0000000 -1.0000000 )


   Cartesian axes

     site n.     atom                  positions (alat units)
         1           Na  tau(   1) = (   0.5000030   0.2845678   0.2263706  )
         2           Fe  tau(   2) = (   0.2766340   0.4294349   0.4507203  )
         3           Fe  tau(   3) = (   0.2132450   0.1402663   0.2218663  )
         4           Fe  tau(   4) = (   0.7233720   0.1397012   0.0020210  )
         5           Fe  tau(   5) = (   0.7867600   0.4288692   0.2308749  )
         6           P   tau(   6) = (   0.1084050   0.4261954   0.2015126  )
         7           P   tau(   7) = (   0.3919000   0.1399766   0.4279887  )
         8           P   tau(   8) = (   0.8916010   0.1429407   0.2512292  )
         9           P   tau(   9) = (   0.6081070   0.4291595   0.0247508  )
        10           O   tau(  10) = (   0.1318760   0.4258881   0.3407034  )
        11           O   tau(  11) = (   0.3711480   0.1444847   0.1151595  )
        12           O   tau(  12) = (   0.8681290   0.1432480   0.1120374  )
        13           O   tau(  13) = (   0.6288580   0.4246514   0.3375832  )
        14           O   tau(  14) = (   0.4620270   0.4240020   0.0555859  )
        15           O   tau(  15) = (   0.0373160   0.1431860   0.2788190  )
        16           O   tau(  16) = (   0.5379780   0.1451341   0.3971554  )
        17           O   tau(  17) = (   0.9626900   0.4259501   0.1739222  )
        18           O   tau(  18) = (   0.1786770   0.5378008   0.1374659  )
        19           O   tau(  19) = (   0.3223210   0.0283878   0.3660627  )
        20           O   tau(  20) = (   0.8194080   0.2525506   0.3160514  )
        21           O   tau(  21) = (   0.6766380   0.3185262   0.0926729  )
        22           O   tau(  22) = (   0.8213290   0.0313359   0.3152754  )
        23           O   tau(  23) = (   0.6776850   0.5407489   0.0866786  )
        24           O   tau(  24) = (   0.1805980   0.3165855   0.1366899  )
        25           O   tau(  25) = (   0.3233680   0.2506099   0.3600689  )

   Crystallographic axes

     site n.     atom                  positions (cryst. coord.)
         1           Na  tau(   1) = (  0.5000030  0.5000020  0.5000030  )
         2           Fe  tau(   2) = (  0.2766340  0.7545420  0.9955420  )
         3           Fe  tau(   3) = (  0.2132450  0.2464560  0.4900540  )
         4           Fe  tau(   4) = (  0.7233720  0.2454630  0.0044640  )
         5           Fe  tau(   5) = (  0.7867600  0.7535480  0.5099520  )
         6           P   tau(   6) = (  0.1084050  0.7488500  0.4450970  )
         7           P   tau(   7) = (  0.3919000  0.2459470  0.9453330  )
         8           P   tau(   8) = (  0.8916010  0.2511550  0.5549100  )
         9           P   tau(   9) = (  0.6081070  0.7540580  0.0546690  )
        10           O   tau(  10) = (  0.1318760  0.7483100  0.7525390  )
        11           O   tau(  11) = (  0.3711480  0.2538680  0.2543620  )
        12           O   tau(  12) = (  0.8681290  0.2516950  0.2474660  )
        13           O   tau(  13) = (  0.6288580  0.7461370  0.7456470  )
        14           O   tau(  14) = (  0.4620270  0.7449960  0.1227770  )
        15           O   tau(  15) = (  0.0373160  0.2515860  0.6158500  )
        16           O   tau(  16) = (  0.5379780  0.2550090  0.8772290  )
        17           O   tau(  17) = (  0.9626900  0.7484190  0.3841560  )
        18           O   tau(  18) = (  0.1786770  0.9449470  0.3036320  )
        19           O   tau(  19) = (  0.3223210  0.0498790  0.8085520  )
        20           O   tau(  20) = (  0.8194080  0.4437460  0.6980880  )
        21           O   tau(  21) = (  0.6766380  0.5596690  0.2046940  )
        22           O   tau(  22) = (  0.8213290  0.0550590  0.6963740  )
        23           O   tau(  23) = (  0.6776850  0.9501270  0.1914540  )
        24           O   tau(  24) = (  0.1805980  0.5562590  0.3019180  )
        25           O   tau(  25) = (  0.3233680  0.4403360  0.7953130  )

     number of k points=   158  Marzari-Vanderbilt smearing, width (Ry)=  0.0073
                       cart. coord. in units 2pi/alat
        k(    1) = (   0.0000000   0.0000000   0.0000000), wk =   0.0031746
        k(    2) = (   0.0000000   0.0000000   0.2454200), wk =   0.0063492
        k(    3) = (   0.0000000   0.0000000   0.4908401), wk =   0.0063492
        k(    4) = (   0.0000000   0.0000000   0.7362601), wk =   0.0063492
        k(    5) = (   0.0000000   0.0000000   0.9816801), wk =   0.0063492
        k(    6) = (   0.0000000   0.2510082   0.0000000), wk =   0.0063492
        k(    7) = (   0.0000000   0.2510082   0.2454200), wk =   0.0063492
        k(    8) = (   0.0000000   0.2510082   0.4908401), wk =   0.0063492
        k(    9) = (   0.0000000   0.2510082   0.7362601), wk =   0.0063492
        k(   10) = (   0.0000000   0.2510082   0.9816801), wk =   0.0063492
        k(   11) = (   0.0000000   0.5020165   0.0000000), wk =   0.0063492
        k(   12) = (   0.0000000   0.5020165   0.2454200), wk =   0.0063492
        k(   13) = (   0.0000000   0.5020165   0.4908401), wk =   0.0063492
        k(   14) = (   0.0000000   0.5020165   0.7362601), wk =   0.0063492
        k(   15) = (   0.0000000   0.5020165   0.9816801), wk =   0.0063492
        k(   16) = (   0.0000000   0.7530247   0.0000000), wk =   0.0063492
        k(   17) = (   0.0000000   0.7530247   0.2454200), wk =   0.0063492
        k(   18) = (   0.0000000   0.7530247   0.4908401), wk =   0.0063492
        k(   19) = (   0.0000000   0.7530247   0.7362601), wk =   0.0063492
        k(   20) = (   0.0000000   0.7530247   0.9816801), wk =   0.0063492
        k(   21) = (   0.2000000   0.0000000   0.0000000), wk =   0.0063492
        k(   22) = (   0.2000000   0.0000000   0.2454200), wk =   0.0063492
        k(   23) = (   0.2000000   0.0000000   0.4908401), wk =   0.0063492
        k(   24) = (   0.2000000   0.0000000   0.7362601), wk =   0.0063492
        k(   25) = (   0.2000000   0.0000000   0.9816801), wk =   0.0063492
        k(   26) = (   0.2000000   0.2510082   0.0000000), wk =   0.0063492
        k(   27) = (   0.2000000   0.2510082   0.2454200), wk =   0.0063492
        k(   28) = (   0.2000000   0.2510082   0.4908401), wk =   0.0063492
        k(   29) = (   0.2000000   0.2510082   0.7362601), wk =   0.0063492
        k(   30) = (   0.2000000   0.2510082   0.9816801), wk =   0.0063492
        k(   31) = (   0.2000000   0.5020165   0.0000000), wk =   0.0063492
        k(   32) = (   0.2000000   0.5020165   0.2454200), wk =   0.0063492
        k(   33) = (   0.2000000   0.5020165   0.4908401), wk =   0.0063492
        k(   34) = (   0.2000000   0.5020165   0.7362601), wk =   0.0063492
        k(   35) = (   0.2000000   0.5020165   0.9816801), wk =   0.0063492
        k(   36) = (   0.2000000   0.7530247   0.0000000), wk =   0.0063492
        k(   37) = (   0.2000000   0.7530247   0.2454200), wk =   0.0063492
        k(   38) = (   0.2000000   0.7530247   0.4908401), wk =   0.0063492
        k(   39) = (   0.2000000   0.7530247   0.7362601), wk =   0.0063492
        k(   40) = (   0.2000000   0.7530247   0.9816801), wk =   0.0063492
        k(   41) = (   0.4000000   0.0000000   0.0000000), wk =   0.0063492
        k(   42) = (   0.4000000   0.0000000   0.2454200), wk =   0.0063492
        k(   43) = (   0.4000000   0.0000000   0.4908401), wk =   0.0063492
        k(   44) = (   0.4000000   0.0000000   0.7362601), wk =   0.0063492
        k(   45) = (   0.4000000   0.0000000   0.9816801), wk =   0.0063492
        k(   46) = (   0.4000000   0.2510082   0.0000000), wk =   0.0063492
        k(   47) = (   0.4000000   0.2510082   0.2454200), wk =   0.0063492
        k(   48) = (   0.4000000   0.2510082   0.4908401), wk =   0.0063492
        k(   49) = (   0.4000000   0.2510082   0.7362601), wk =   0.0063492
        k(   50) = (   0.4000000   0.2510082   0.9816801), wk =   0.0063492
        k(   51) = (   0.4000000   0.5020165   0.0000000), wk =   0.0063492
        k(   52) = (   0.4000000   0.5020165   0.2454200), wk =   0.0063492
        k(   53) = (   0.4000000   0.5020165   0.4908401), wk =   0.0063492
        k(   54) = (   0.4000000   0.5020165   0.7362601), wk =   0.0063492
        k(   55) = (   0.4000000   0.5020165   0.9816801), wk =   0.0063492
        k(   56) = (   0.4000000   0.7530247   0.0000000), wk =   0.0063492
        k(   57) = (   0.4000000   0.7530247   0.2454200), wk =   0.0063492
        k(   58) = (   0.4000000   0.7530247   0.4908401), wk =   0.0063492
        k(   59) = (   0.4000000   0.7530247   0.7362601), wk =   0.0063492
        k(   60) = (   0.4000000   0.7530247   0.9816801), wk =   0.0063492
        k(   61) = (   0.0000000   0.2510082  -0.2454200), wk =   0.0063492
        k(   62) = (   0.0000000   0.2510082  -0.4908401), wk =   0.0063492
        k(   63) = (   0.0000000   0.2510082  -0.7362601), wk =   0.0063492
        k(   64) = (   0.0000000   0.2510082  -0.9816801), wk =   0.0063492
        k(   65) = (   0.0000000   0.5020165  -0.2454200), wk =   0.0063492
        k(   66) = (   0.0000000   0.5020165  -0.4908401), wk =   0.0063492
        k(   67) = (   0.0000000   0.5020165  -0.7362601), wk =   0.0063492
        k(   68) = (   0.0000000   0.5020165  -0.9816801), wk =   0.0063492
        k(   69) = (   0.0000000   0.7530247  -0.2454200), wk =   0.0063492
        k(   70) = (   0.0000000   0.7530247  -0.4908401), wk =   0.0063492
        k(   71) = (   0.0000000   0.7530247  -0.7362601), wk =   0.0063492
        k(   72) = (   0.0000000   0.7530247  -0.9816801), wk =   0.0063492
        k(   73) = (   0.2000000   0.0000000  -0.2454200), wk =   0.0063492
        k(   74) = (   0.2000000   0.0000000  -0.4908401), wk =   0.0063492
        k(   75) = (   0.2000000   0.0000000  -0.7362601), wk =   0.0063492
        k(   76) = (   0.2000000   0.0000000  -0.9816801), wk =   0.0063492
        k(   77) = (  -0.2000000   0.2510082   0.0000000), wk =   0.0063492
        k(   78) = (  -0.2000000   0.2510082  -0.2454200), wk =   0.0063492
        k(   79) = (   0.2000000  -0.2510082  -0.2454200), wk =   0.0063492
        k(   80) = (  -0.2000000  -0.2510082   0.2454200), wk =   0.0063492
        k(   81) = (  -0.2000000   0.2510082  -0.4908401), wk =   0.0063492
        k(   82) = (   0.2000000  -0.2510082  -0.4908401), wk =   0.0063492
        k(   83) = (  -0.2000000  -0.2510082   0.4908401), wk =   0.0063492
        k(   84) = (  -0.2000000   0.2510082  -0.7362601), wk =   0.0063492
        k(   85) = (   0.2000000  -0.2510082  -0.7362601), wk =   0.0063492
        k(   86) = (  -0.2000000  -0.2510082   0.7362601), wk =   0.0063492
        k(   87) = (  -0.2000000   0.2510082  -0.9816801), wk =   0.0063492
        k(   88) = (   0.2000000  -0.2510082  -0.9816801), wk =   0.0063492
        k(   89) = (  -0.2000000  -0.2510082   0.9816801), wk =   0.0063492
        k(   90) = (  -0.2000000   0.5020165   0.0000000), wk =   0.0063492
        k(   91) = (  -0.2000000   0.5020165  -0.2454200), wk =   0.0063492
        k(   92) = (   0.2000000  -0.5020165  -0.2454200), wk =   0.0063492
        k(   93) = (  -0.2000000  -0.5020165   0.2454200), wk =   0.0063492
        k(   94) = (  -0.2000000   0.5020165  -0.4908401), wk =   0.0063492
        k(   95) = (   0.2000000  -0.5020165  -0.4908401), wk =   0.0063492
        k(   96) = (  -0.2000000  -0.5020165   0.4908401), wk =   0.0063492
        k(   97) = (  -0.2000000   0.5020165  -0.7362601), wk =   0.0063492
        k(   98) = (   0.2000000  -0.5020165  -0.7362601), wk =   0.0063492
        k(   99) = (  -0.2000000  -0.5020165   0.7362601), wk =   0.0063492
        k(  100) = (  -0.2000000   0.5020165  -0.9816801), wk =   0.0063492
        k(  101) = (   0.2000000  -0.5020165  -0.9816801), wk =   0.0063492
        k(  102) = (  -0.2000000  -0.5020165   0.9816801), wk =   0.0063492
        k(  103) = (  -0.2000000   0.7530247   0.0000000), wk =   0.0063492
        k(  104) = (  -0.2000000   0.7530247  -0.2454200), wk =   0.0063492
        k(  105) = (   0.2000000  -0.7530247  -0.2454200), wk =   0.0063492
        k(  106) = (  -0.2000000  -0.7530247   0.2454200), wk =   0.0063492
        k(  107) = (  -0.2000000   0.7530247  -0.4908401), wk =   0.0063492
        k(  108) = (   0.2000000  -0.7530247  -0.4908401), wk =   0.0063492
        k(  109) = (  -0.2000000  -0.7530247   0.4908401), wk =   0.0063492
        k(  110) = (  -0.2000000   0.7530247  -0.7362601), wk =   0.0063492
        k(  111) = (   0.2000000  -0.7530247  -0.7362601), wk =   0.0063492
        k(  112) = (  -0.2000000  -0.7530247   0.7362601), wk =   0.0063492
        k(  113) = (  -0.2000000   0.7530247  -0.9816801), wk =   0.0063492
        k(  114) = (   0.2000000  -0.7530247  -0.9816801), wk =   0.0063492
        k(  115) = (  -0.2000000  -0.7530247   0.9816801), wk =   0.0063492
        k(  116) = (   0.4000000   0.0000000  -0.2454200), wk =   0.0063492
        k(  117) = (   0.4000000   0.0000000  -0.4908401), wk =   0.0063492
        k(  118) = (   0.4000000   0.0000000  -0.7362601), wk =   0.0063492
        k(  119) = (   0.4000000   0.0000000  -0.9816801), wk =   0.0063492
        k(  120) = (  -0.4000000   0.2510082   0.0000000), wk =   0.0063492
        k(  121) = (  -0.4000000   0.2510082  -0.2454200), wk =   0.0063492
        k(  122) = (   0.4000000  -0.2510082  -0.2454200), wk =   0.0063492
        k(  123) = (  -0.4000000  -0.2510082   0.2454200), wk =   0.0063492
        k(  124) = (  -0.4000000   0.2510082  -0.4908401), wk =   0.0063492
        k(  125) = (   0.4000000  -0.2510082  -0.4908401), wk =   0.0063492
        k(  126) = (  -0.4000000  -0.2510082   0.4908401), wk =   0.0063492
        k(  127) = (  -0.4000000   0.2510082  -0.7362601), wk =   0.0063492
        k(  128) = (   0.4000000  -0.2510082  -0.7362601), wk =   0.0063492
        k(  129) = (  -0.4000000  -0.2510082   0.7362601), wk =   0.0063492
        k(  130) = (  -0.4000000   0.2510082  -0.9816801), wk =   0.0063492
        k(  131) = (   0.4000000  -0.2510082  -0.9816801), wk =   0.0063492
        k(  132) = (  -0.4000000  -0.2510082   0.9816801), wk =   0.0063492
        k(  133) = (  -0.4000000   0.5020165   0.0000000), wk =   0.0063492
        k(  134) = (  -0.4000000   0.5020165  -0.2454200), wk =   0.0063492
        k(  135) = (   0.4000000  -0.5020165  -0.2454200), wk =   0.0063492
        k(  136) = (  -0.4000000  -0.5020165   0.2454200), wk =   0.0063492
        k(  137) = (  -0.4000000   0.5020165  -0.4908401), wk =   0.0063492
        k(  138) = (   0.4000000  -0.5020165  -0.4908401), wk =   0.0063492
        k(  139) = (  -0.4000000  -0.5020165   0.4908401), wk =   0.0063492
        k(  140) = (  -0.4000000   0.5020165  -0.7362601), wk =   0.0063492
        k(  141) = (   0.4000000  -0.5020165  -0.7362601), wk =   0.0063492
        k(  142) = (  -0.4000000  -0.5020165   0.7362601), wk =   0.0063492
        k(  143) = (  -0.4000000   0.5020165  -0.9816801), wk =   0.0063492
        k(  144) = (   0.4000000  -0.5020165  -0.9816801), wk =   0.0063492
        k(  145) = (  -0.4000000  -0.5020165   0.9816801), wk =   0.0063492
        k(  146) = (  -0.4000000   0.7530247   0.0000000), wk =   0.0063492
        k(  147) = (  -0.4000000   0.7530247  -0.2454200), wk =   0.0063492
        k(  148) = (   0.4000000  -0.7530247  -0.2454200), wk =   0.0063492
        k(  149) = (  -0.4000000  -0.7530247   0.2454200), wk =   0.0063492
        k(  150) = (  -0.4000000   0.7530247  -0.4908401), wk =   0.0063492
        k(  151) = (   0.4000000  -0.7530247  -0.4908401), wk =   0.0063492
        k(  152) = (  -0.4000000  -0.7530247   0.4908401), wk =   0.0063492
        k(  153) = (  -0.4000000   0.7530247  -0.7362601), wk =   0.0063492
        k(  154) = (   0.4000000  -0.7530247  -0.7362601), wk =   0.0063492
        k(  155) = (  -0.4000000  -0.7530247   0.7362601), wk =   0.0063492
        k(  156) = (  -0.4000000   0.7530247  -0.9816801), wk =   0.0063492
        k(  157) = (   0.4000000  -0.7530247  -0.9816801), wk =   0.0063492
        k(  158) = (  -0.4000000  -0.7530247   0.9816801), wk =   0.0063492

                       cryst. coord.
        k(    1) = (   0.0000000   0.0000000   0.0000000), wk =   0.0031746
        k(    2) = (   0.0000000   0.0000000   0.1111111), wk =   0.0063492
        k(    3) = (   0.0000000   0.0000000   0.2222222), wk =   0.0063492
        k(    4) = (   0.0000000   0.0000000   0.3333333), wk =   0.0063492
        k(    5) = (   0.0000000   0.0000000   0.4444444), wk =   0.0063492
        k(    6) = (   0.0000000   0.1428571   0.0000000), wk =   0.0063492
        k(    7) = (   0.0000000   0.1428571   0.1111111), wk =   0.0063492
        k(    8) = (   0.0000000   0.1428571   0.2222222), wk =   0.0063492
        k(    9) = (   0.0000000   0.1428571   0.3333333), wk =   0.0063492
        k(   10) = (   0.0000000   0.1428571   0.4444444), wk =   0.0063492
        k(   11) = (   0.0000000   0.2857143   0.0000000), wk =   0.0063492
        k(   12) = (   0.0000000   0.2857143   0.1111111), wk =   0.0063492
        k(   13) = (   0.0000000   0.2857143   0.2222222), wk =   0.0063492
        k(   14) = (   0.0000000   0.2857143   0.3333333), wk =   0.0063492
        k(   15) = (   0.0000000   0.2857143   0.4444444), wk =   0.0063492
        k(   16) = (   0.0000000   0.4285714   0.0000000), wk =   0.0063492
        k(   17) = (   0.0000000   0.4285714   0.1111111), wk =   0.0063492
        k(   18) = (   0.0000000   0.4285714   0.2222222), wk =   0.0063492
        k(   19) = (   0.0000000   0.4285714   0.3333333), wk =   0.0063492
        k(   20) = (   0.0000000   0.4285714   0.4444444), wk =   0.0063492
        k(   21) = (   0.2000000   0.0000000   0.0000000), wk =   0.0063492
        k(   22) = (   0.2000000   0.0000000   0.1111111), wk =   0.0063492
        k(   23) = (   0.2000000   0.0000000   0.2222222), wk =   0.0063492
        k(   24) = (   0.2000000   0.0000000   0.3333333), wk =   0.0063492
        k(   25) = (   0.2000000   0.0000000   0.4444444), wk =   0.0063492
        k(   26) = (   0.2000000   0.1428571   0.0000000), wk =   0.0063492
        k(   27) = (   0.2000000   0.1428571   0.1111111), wk =   0.0063492
        k(   28) = (   0.2000000   0.1428571   0.2222222), wk =   0.0063492
        k(   29) = (   0.2000000   0.1428571   0.3333333), wk =   0.0063492
        k(   30) = (   0.2000000   0.1428571   0.4444444), wk =   0.0063492
        k(   31) = (   0.2000000   0.2857143   0.0000000), wk =   0.0063492
        k(   32) = (   0.2000000   0.2857143   0.1111111), wk =   0.0063492
        k(   33) = (   0.2000000   0.2857143   0.2222222), wk =   0.0063492
        k(   34) = (   0.2000000   0.2857143   0.3333333), wk =   0.0063492
        k(   35) = (   0.2000000   0.2857143   0.4444444), wk =   0.0063492
        k(   36) = (   0.2000000   0.4285714   0.0000000), wk =   0.0063492
        k(   37) = (   0.2000000   0.4285714   0.1111111), wk =   0.0063492
        k(   38) = (   0.2000000   0.4285714   0.2222222), wk =   0.0063492
        k(   39) = (   0.2000000   0.4285714   0.3333333), wk =   0.0063492
        k(   40) = (   0.2000000   0.4285714   0.4444444), wk =   0.0063492
        k(   41) = (   0.4000000   0.0000000   0.0000000), wk =   0.0063492
        k(   42) = (   0.4000000   0.0000000   0.1111111), wk =   0.0063492
        k(   43) = (   0.4000000   0.0000000   0.2222222), wk =   0.0063492
        k(   44) = (   0.4000000   0.0000000   0.3333333), wk =   0.0063492
        k(   45) = (   0.4000000   0.0000000   0.4444444), wk =   0.0063492
        k(   46) = (   0.4000000   0.1428571   0.0000000), wk =   0.0063492
        k(   47) = (   0.4000000   0.1428571   0.1111111), wk =   0.0063492
        k(   48) = (   0.4000000   0.1428571   0.2222222), wk =   0.0063492
        k(   49) = (   0.4000000   0.1428571   0.3333333), wk =   0.0063492
        k(   50) = (   0.4000000   0.1428571   0.4444444), wk =   0.0063492
        k(   51) = (   0.4000000   0.2857143   0.0000000), wk =   0.0063492
        k(   52) = (   0.4000000   0.2857143   0.1111111), wk =   0.0063492
        k(   53) = (   0.4000000   0.2857143   0.2222222), wk =   0.0063492
        k(   54) = (   0.4000000   0.2857143   0.3333333), wk =   0.0063492
        k(   55) = (   0.4000000   0.2857143   0.4444444), wk =   0.0063492
        k(   56) = (   0.4000000   0.4285714   0.0000000), wk =   0.0063492
        k(   57) = (   0.4000000   0.4285714   0.1111111), wk =   0.0063492
        k(   58) = (   0.4000000   0.4285714   0.2222222), wk =   0.0063492
        k(   59) = (   0.4000000   0.4285714   0.3333333), wk =   0.0063492
        k(   60) = (   0.4000000   0.4285714   0.4444444), wk =   0.0063492
        k(   61) = (   0.0000000   0.1428571  -0.1111111), wk =   0.0063492
        k(   62) = (   0.0000000   0.1428571  -0.2222222), wk =   0.0063492
        k(   63) = (   0.0000000   0.1428571  -0.3333333), wk =   0.0063492
        k(   64) = (   0.0000000   0.1428571  -0.4444444), wk =   0.0063492
        k(   65) = (   0.0000000   0.2857143  -0.1111111), wk =   0.0063492
        k(   66) = (   0.0000000   0.2857143  -0.2222222), wk =   0.0063492
        k(   67) = (   0.0000000   0.2857143  -0.3333333), wk =   0.0063492
        k(   68) = (   0.0000000   0.2857143  -0.4444444), wk =   0.0063492
        k(   69) = (   0.0000000   0.4285714  -0.1111111), wk =   0.0063492
        k(   70) = (   0.0000000   0.4285714  -0.2222222), wk =   0.0063492
        k(   71) = (   0.0000000   0.4285714  -0.3333333), wk =   0.0063492
        k(   72) = (   0.0000000   0.4285714  -0.4444444), wk =   0.0063492
        k(   73) = (   0.2000000   0.0000000  -0.1111111), wk =   0.0063492
        k(   74) = (   0.2000000   0.0000000  -0.2222222), wk =   0.0063492
        k(   75) = (   0.2000000   0.0000000  -0.3333333), wk =   0.0063492
        k(   76) = (   0.2000000   0.0000000  -0.4444444), wk =   0.0063492
        k(   77) = (  -0.2000000   0.1428571   0.0000000), wk =   0.0063492
        k(   78) = (  -0.2000000   0.1428571  -0.1111111), wk =   0.0063492
        k(   79) = (   0.2000000  -0.1428571  -0.1111111), wk =   0.0063492
        k(   80) = (  -0.2000000  -0.1428571   0.1111111), wk =   0.0063492
        k(   81) = (  -0.2000000   0.1428571  -0.2222222), wk =   0.0063492
        k(   82) = (   0.2000000  -0.1428571  -0.2222222), wk =   0.0063492
        k(   83) = (  -0.2000000  -0.1428571   0.2222222), wk =   0.0063492
        k(   84) = (  -0.2000000   0.1428571  -0.3333333), wk =   0.0063492
        k(   85) = (   0.2000000  -0.1428571  -0.3333333), wk =   0.0063492
        k(   86) = (  -0.2000000  -0.1428571   0.3333333), wk =   0.0063492
        k(   87) = (  -0.2000000   0.1428571  -0.4444444), wk =   0.0063492
        k(   88) = (   0.2000000  -0.1428571  -0.4444444), wk =   0.0063492
        k(   89) = (  -0.2000000  -0.1428571   0.4444444), wk =   0.0063492
        k(   90) = (  -0.2000000   0.2857143   0.0000000), wk =   0.0063492
        k(   91) = (  -0.2000000   0.2857143  -0.1111111), wk =   0.0063492
        k(   92) = (   0.2000000  -0.2857143  -0.1111111), wk =   0.0063492
        k(   93) = (  -0.2000000  -0.2857143   0.1111111), wk =   0.0063492
        k(   94) = (  -0.2000000   0.2857143  -0.2222222), wk =   0.0063492
        k(   95) = (   0.2000000  -0.2857143  -0.2222222), wk =   0.0063492
        k(   96) = (  -0.2000000  -0.2857143   0.2222222), wk =   0.0063492
        k(   97) = (  -0.2000000   0.2857143  -0.3333333), wk =   0.0063492
        k(   98) = (   0.2000000  -0.2857143  -0.3333333), wk =   0.0063492
        k(   99) = (  -0.2000000  -0.2857143   0.3333333), wk =   0.0063492
        k(  100) = (  -0.2000000   0.2857143  -0.4444444), wk =   0.0063492
        k(  101) = (   0.2000000  -0.2857143  -0.4444444), wk =   0.0063492
        k(  102) = (  -0.2000000  -0.2857143   0.4444444), wk =   0.0063492
        k(  103) = (  -0.2000000   0.4285714   0.0000000), wk =   0.0063492
        k(  104) = (  -0.2000000   0.4285714  -0.1111111), wk =   0.0063492
        k(  105) = (   0.2000000  -0.4285714  -0.1111111), wk =   0.0063492
        k(  106) = (  -0.2000000  -0.4285714   0.1111111), wk =   0.0063492
        k(  107) = (  -0.2000000   0.4285714  -0.2222222), wk =   0.0063492
        k(  108) = (   0.2000000  -0.4285714  -0.2222222), wk =   0.0063492
        k(  109) = (  -0.2000000  -0.4285714   0.2222222), wk =   0.0063492
        k(  110) = (  -0.2000000   0.4285714  -0.3333333), wk =   0.0063492
        k(  111) = (   0.2000000  -0.4285714  -0.3333333), wk =   0.0063492
        k(  112) = (  -0.2000000  -0.4285714   0.3333333), wk =   0.0063492
        k(  113) = (  -0.2000000   0.4285714  -0.4444444), wk =   0.0063492
        k(  114) = (   0.2000000  -0.4285714  -0.4444444), wk =   0.0063492
        k(  115) = (  -0.2000000  -0.4285714   0.4444444), wk =   0.0063492
        k(  116) = (   0.4000000   0.0000000  -0.1111111), wk =   0.0063492
        k(  117) = (   0.4000000   0.0000000  -0.2222222), wk =   0.0063492
        k(  118) = (   0.4000000   0.0000000  -0.3333333), wk =   0.0063492
        k(  119) = (   0.4000000   0.0000000  -0.4444444), wk =   0.0063492
        k(  120) = (  -0.4000000   0.1428571   0.0000000), wk =   0.0063492
        k(  121) = (  -0.4000000   0.1428571  -0.1111111), wk =   0.0063492
        k(  122) = (   0.4000000  -0.1428571  -0.1111111), wk =   0.0063492
        k(  123) = (  -0.4000000  -0.1428571   0.1111111), wk =   0.0063492
        k(  124) = (  -0.4000000   0.1428571  -0.2222222), wk =   0.0063492
        k(  125) = (   0.4000000  -0.1428571  -0.2222222), wk =   0.0063492
        k(  126) = (  -0.4000000  -0.1428571   0.2222222), wk =   0.0063492
        k(  127) = (  -0.4000000   0.1428571  -0.3333333), wk =   0.0063492
        k(  128) = (   0.4000000  -0.1428571  -0.3333333), wk =   0.0063492
        k(  129) = (  -0.4000000  -0.1428571   0.3333333), wk =   0.0063492
        k(  130) = (  -0.4000000   0.1428571  -0.4444444), wk =   0.0063492
        k(  131) = (   0.4000000  -0.1428571  -0.4444444), wk =   0.0063492
        k(  132) = (  -0.4000000  -0.1428571   0.4444444), wk =   0.0063492
        k(  133) = (  -0.4000000   0.2857143   0.0000000), wk =   0.0063492
        k(  134) = (  -0.4000000   0.2857143  -0.1111111), wk =   0.0063492
        k(  135) = (   0.4000000  -0.2857143  -0.1111111), wk =   0.0063492
        k(  136) = (  -0.4000000  -0.2857143   0.1111111), wk =   0.0063492
        k(  137) = (  -0.4000000   0.2857143  -0.2222222), wk =   0.0063492
        k(  138) = (   0.4000000  -0.2857143  -0.2222222), wk =   0.0063492
        k(  139) = (  -0.4000000  -0.2857143   0.2222222), wk =   0.0063492
        k(  140) = (  -0.4000000   0.2857143  -0.3333333), wk =   0.0063492
        k(  141) = (   0.4000000  -0.2857143  -0.3333333), wk =   0.0063492
        k(  142) = (  -0.4000000  -0.2857143   0.3333333), wk =   0.0063492
        k(  143) = (  -0.4000000   0.2857143  -0.4444444), wk =   0.0063492
        k(  144) = (   0.4000000  -0.2857143  -0.4444444), wk =   0.0063492
        k(  145) = (  -0.4000000  -0.2857143   0.4444444), wk =   0.0063492
        k(  146) = (  -0.4000000   0.4285714   0.0000000), wk =   0.0063492
        k(  147) = (  -0.4000000   0.4285714  -0.1111111), wk =   0.0063492
        k(  148) = (   0.4000000  -0.4285714  -0.1111111), wk =   0.0063492
        k(  149) = (  -0.4000000  -0.4285714   0.1111111), wk =   0.0063492
        k(  150) = (  -0.4000000   0.4285714  -0.2222222), wk =   0.0063492
        k(  151) = (   0.4000000  -0.4285714  -0.2222222), wk =   0.0063492
        k(  152) = (  -0.4000000  -0.4285714   0.2222222), wk =   0.0063492
        k(  153) = (  -0.4000000   0.4285714  -0.3333333), wk =   0.0063492
        k(  154) = (   0.4000000  -0.4285714  -0.3333333), wk =   0.0063492
        k(  155) = (  -0.4000000  -0.4285714   0.3333333), wk =   0.0063492
        k(  156) = (  -0.4000000   0.4285714  -0.4444444), wk =   0.0063492
        k(  157) = (   0.4000000  -0.4285714  -0.4444444), wk =   0.0063492
        k(  158) = (  -0.4000000  -0.4285714   0.4444444), wk =   0.0063492

     Dense  grid:  1359665 G-vectors     FFT dimensions: ( 216, 125, 100)

     Smooth grid:   306383 G-vectors     FFT dimensions: ( 135,  75,  60)

     Dynamical RAM for                 wfc:       5.55 MB

     Dynamical RAM for     wfc (w. buffer):    1760.14 MB

     Dynamical RAM for           str. fact:       6.92 MB

     Dynamical RAM for           local pot:       0.00 MB

     Dynamical RAM for          nlocal pot:      13.64 MB

     Dynamical RAM for                qrad:      10.54 MB

     Dynamical RAM for          rho,v,vnew:      21.50 MB

     Dynamical RAM for               rhoin:       7.17 MB

     Dynamical RAM for            rho*nmix:      55.33 MB

     Dynamical RAM for           G-vectors:       6.68 MB

     Dynamical RAM for          h,s,v(r/c):       2.38 MB

     Dynamical RAM for          <psi|beta>:       0.49 MB

     Dynamical RAM for                 psi:      11.10 MB

     Dynamical RAM for                hpsi:      11.10 MB

     Dynamical RAM for                spsi:      11.10 MB

     Dynamical RAM for      wfcinit/wfcrot:      13.78 MB

     Dynamical RAM for           addusdens:     350.97 MB

     Dynamical RAM for          addusforce:     402.96 MB

     Dynamical RAM for         addusstress:     350.10 MB

     Estimated static dynamical RAM per process >       1.86 GB

     Estimated max dynamical RAM per process >       2.25 GB

     Estimated total dynamical RAM >      27.01 GB

     Check: negative core charge=   -0.000003
     Generating pointlists ...
     new r_m :   0.0750 (alat units)  1.5489 (a.u.) for type    1
     new r_m :   0.0909 (alat units)  1.8776 (a.u.) for type    2
     new r_m :   0.0582 (alat units)  1.2023 (a.u.) for type    3
     new r_m :   0.0582 (alat units)  1.2023 (a.u.) for type    4

     Initial potential from superposition of free atoms

     starting charge  188.99132, renormalised to  189.00000
     Starting wfcs are  137 randomized atomic wfcs
     Checking if some PAW data can be deallocated... 
       PAW data deallocated on   10 nodes for type:  1
       PAW data deallocated on    4 nodes for type:  3

     total cpu time spent up to now is      341.7 secs

     Self-consistent Calculation

     iteration #  1     ecut=   100.00 Ry     beta= 0.40
     Davidson diagonalization with overlap
     ethr =  1.00E-02,  avg # of iterations =  2.9

     negative rho (up, down):  0.000E+00 9.243E-05

     total cpu time spent up to now is     1371.8 secs

     total energy              =   -2123.90210727 Ry
     estimated scf accuracy    <       6.85107027 Ry

     total magnetization       =    19.00 Bohr mag/cell
     absolute magnetization    =    19.00 Bohr mag/cell

     iteration #  2     ecut=   100.00 Ry     beta= 0.40
     Davidson diagonalization with overlap
     ethr =  3.62E-03,  avg # of iterations =  2.0

     negative rho (up, down):  0.000E+00 4.701E-05

     total cpu time spent up to now is     2353.2 secs

     total energy              =   -2121.87621507 Ry
     estimated scf accuracy    <      24.48134778 Ry

     total magnetization       =     9.01 Bohr mag/cell
     absolute magnetization    =     9.55 Bohr mag/cell

     iteration #  3     ecut=   100.00 Ry     beta= 0.40
     Davidson diagonalization with overlap
     ethr =  3.62E-03,  avg # of iterations =  2.0

     negative rho (up, down):  0.000E+00 1.533E-04

     total cpu time spent up to now is     3186.0 secs

     total energy              =   -2126.11464723 Ry
     estimated scf accuracy    <       2.19375676 Ry

     total magnetization       =    19.00 Bohr mag/cell
     absolute magnetization    =    19.00 Bohr mag/cell

     iteration #  4     ecut=   100.00 Ry     beta= 0.40
     Davidson diagonalization with overlap
     ethr =  1.16E-03,  avg # of iterations =  1.9

     negative rho (up, down):  0.000E+00 2.077E-04

     total cpu time spent up to now is     3999.3 secs

     total energy              =   -2126.11586745 Ry
     estimated scf accuracy    <       1.32778954 Ry

     total magnetization       =    19.00 Bohr mag/cell
     absolute magnetization    =    19.00 Bohr mag/cell

     iteration #  5     ecut=   100.00 Ry     beta= 0.40
     Davidson diagonalization with overlap
     ethr =  7.03E-04,  avg # of iterations =  1.1

     negative rho (up, down):  0.000E+00 6.206E-04

     total cpu time spent up to now is     4698.1 secs

     total energy              =   -2125.93500314 Ry
     estimated scf accuracy    <       0.86382736 Ry

     total magnetization       =    19.00 Bohr mag/cell
     absolute magnetization    =    19.00 Bohr mag/cell

     iteration #  6     ecut=   100.00 Ry     beta= 0.40
     Davidson diagonalization with overlap
     ethr =  4.57E-04,  avg # of iterations =  2.1

     negative rho (up, down):  0.000E+00 7.241E-04

     total cpu time spent up to now is     5532.3 secs

     total energy              =   -2126.03874210 Ry
     estimated scf accuracy    <       0.15414417 Ry

     total magnetization       =    19.00 Bohr mag/cell
     absolute magnetization    =    19.01 Bohr mag/cell

     iteration #  7     ecut=   100.00 Ry     beta= 0.40
     Davidson diagonalization with overlap
     c_bands:  1 eigenvalues not converged
     c_bands:  1 eigenvalues not converged
     c_bands:  1 eigenvalues not converged
     c_bands:  1 eigenvalues not converged
     c_bands:  1 eigenvalues not converged
     c_bands:  1 eigenvalues not converged
     c_bands:  1 eigenvalues not converged
     c_bands:  1 eigenvalues not converged
     c_bands:  1 eigenvalues not converged
     c_bands:  1 eigenvalues not converged
     ethr =  8.16E-05,  avg # of iterations = 13.1

     negative rho (up, down):  0.000E+00 9.081E-04

     total cpu time spent up to now is     6762.5 secs

     total energy              =   -2126.05267209 Ry
     estimated scf accuracy    <       0.03085383 Ry

     total magnetization       =    19.00 Bohr mag/cell
     absolute magnetization    =    19.01 Bohr mag/cell

     iteration #  8     ecut=   100.00 Ry     beta= 0.40
     Davidson diagonalization with overlap
     c_bands:  1 eigenvalues not converged
     c_bands:  1 eigenvalues not converged
     c_bands:  1 eigenvalues not converged
     c_bands:  1 eigenvalues not converged
     c_bands:  1 eigenvalues not converged
     ethr =  1.63E-05,  avg # of iterations =  8.8

     negative rho (up, down):  0.000E+00 9.708E-04

     total cpu time spent up to now is     7945.2 secs

     total energy              =   -2126.06115696 Ry
     estimated scf accuracy    <       0.03411359 Ry

     total magnetization       =    19.00 Bohr mag/cell
     absolute magnetization    =    19.03 Bohr mag/cell

     iteration #  9     ecut=   100.00 Ry     beta= 0.40
     Davidson diagonalization with overlap
     ethr =  1.63E-05,  avg # of iterations =  1.0

     negative rho (up, down):  0.000E+00 9.743E-04

     total cpu time spent up to now is     8639.8 secs

     total energy              =   -2126.06213749 Ry
     estimated scf accuracy    <       0.03093403 Ry

     total magnetization       =    19.00 Bohr mag/cell
     absolute magnetization    =    19.04 Bohr mag/cell

     iteration # 10     ecut=   100.00 Ry     beta= 0.40
     Davidson diagonalization with overlap
     ethr =  1.63E-05,  avg # of iterations =  1.0

     negative rho (up, down):  0.000E+00 9.687E-04

     total cpu time spent up to now is     9331.7 secs

     total energy              =   -2126.06184468 Ry
     estimated scf accuracy    <       0.01937590 Ry

     total magnetization       =    19.00 Bohr mag/cell
     absolute magnetization    =    19.05 Bohr mag/cell

     iteration # 11     ecut=   100.00 Ry     beta= 0.40
     Davidson diagonalization with overlap
     ethr =  1.03E-05,  avg # of iterations =  1.2

     negative rho (up, down):  0.000E+00 9.741E-04

     total cpu time spent up to now is    10040.8 secs

     total energy              =   -2126.06247703 Ry
     estimated scf accuracy    <       0.00141642 Ry

     total magnetization       =    19.00 Bohr mag/cell
     absolute magnetization    =    19.05 Bohr mag/cell

     iteration # 12     ecut=   100.00 Ry     beta= 0.40
     Davidson diagonalization with overlap
     c_bands:  1 eigenvalues not converged
     c_bands:  1 eigenvalues not converged
     c_bands:  1 eigenvalues not converged
     c_bands:  1 eigenvalues not converged
     c_bands:  1 eigenvalues not converged
     c_bands:  1 eigenvalues not converged
     c_bands:  1 eigenvalues not converged
     c_bands:  1 eigenvalues not converged
     c_bands:  1 eigenvalues not converged
     c_bands:  1 eigenvalues not converged
     c_bands:  1 eigenvalues not converged
     c_bands:  1 eigenvalues not converged
     c_bands:  1 eigenvalues not converged
     c_bands:  1 eigenvalues not converged
     c_bands:  1 eigenvalues not converged
     c_bands:  1 eigenvalues not converged
     c_bands:  1 eigenvalues not converged
     c_bands:  1 eigenvalues not converged
     c_bands:  1 eigenvalues not converged
     c_bands:  1 eigenvalues not converged
     c_bands:  1 eigenvalues not converged
     c_bands:  1 eigenvalues not converged
     c_bands:  1 eigenvalues not converged
     c_bands:  1 eigenvalues not converged
     c_bands:  1 eigenvalues not converged
     c_bands:  1 eigenvalues not converged
     c_bands:  1 eigenvalues not converged
     c_bands:  1 eigenvalues not converged
     ethr =  7.49E-07,  avg # of iterations =  9.3

     negative rho (up, down):  0.000E+00 9.702E-04

     total cpu time spent up to now is    11398.6 secs

     total energy              =   -2126.06303362 Ry
     estimated scf accuracy    <       0.00132356 Ry

     total magnetization       =    19.00 Bohr mag/cell
     absolute magnetization    =    19.05 Bohr mag/cell

     iteration # 13     ecut=   100.00 Ry     beta= 0.40
     Davidson diagonalization with overlap
     c_bands:  1 eigenvalues not converged
     c_bands:  1 eigenvalues not converged
     ethr =  7.00E-07,  avg # of iterations =  1.4

     negative rho (up, down):  0.000E+00 9.654E-04

     total cpu time spent up to now is    12117.0 secs

     total energy              =   -2126.06302969 Ry
     estimated scf accuracy    <       0.00133850 Ry

     total magnetization       =    19.00 Bohr mag/cell
     absolute magnetization    =    19.05 Bohr mag/cell

     iteration # 14     ecut=   100.00 Ry     beta= 0.40
     Davidson diagonalization with overlap
     ethr =  7.00E-07,  avg # of iterations =  1.0

     negative rho (up, down):  0.000E+00 9.605E-04

     total cpu time spent up to now is    12811.5 secs

     total energy              =   -2126.06310332 Ry
     estimated scf accuracy    <       0.00005507 Ry

     total magnetization       =    19.00 Bohr mag/cell
     absolute magnetization    =    19.05 Bohr mag/cell

     iteration # 15     ecut=   100.00 Ry     beta= 0.40
     Davidson diagonalization with overlap
     ethr =  2.91E-08,  avg # of iterations =  2.6

     negative rho (up, down):  0.000E+00 9.649E-04

     total cpu time spent up to now is    13807.2 secs

     total energy              =   -2126.06313310 Ry
     estimated scf accuracy    <       0.00004836 Ry

     total magnetization       =    19.00 Bohr mag/cell
     absolute magnetization    =    19.05 Bohr mag/cell

     iteration # 16     ecut=   100.00 Ry     beta= 0.40
     Davidson diagonalization with overlap
     ethr =  2.56E-08,  avg # of iterations =  2.0

     negative rho (up, down):  0.000E+00 9.633E-04

     total cpu time spent up to now is    18533.6 secs

     total energy              =   -2126.06313930 Ry
     estimated scf accuracy    <       0.00000959 Ry

     total magnetization       =    19.00 Bohr mag/cell
     absolute magnetization    =    19.05 Bohr mag/cell

     iteration # 17     ecut=   100.00 Ry     beta= 0.40
     Davidson diagonalization with overlap
     ethr =  5.07E-09,  avg # of iterations =  3.2

     negative rho (up, down):  0.000E+00 9.638E-04

     total cpu time spent up to now is    25653.6 secs

     total energy              =   -2126.06315223 Ry
     estimated scf accuracy    <       0.00001432 Ry

     total magnetization       =    19.00 Bohr mag/cell
     absolute magnetization    =    19.05 Bohr mag/cell

     iteration # 18     ecut=   100.00 Ry     beta= 0.40
     Davidson diagonalization with overlap
     ethr =  5.07E-09,  avg # of iterations =  1.2

     negative rho (up, down):  0.000E+00 9.647E-04

     total cpu time spent up to now is    30980.4 secs

     total energy              =   -2126.06315415 Ry
     estimated scf accuracy    <       0.00000069 Ry

     total magnetization       =    19.00 Bohr mag/cell
     absolute magnetization    =    19.05 Bohr mag/cell

     iteration # 19     ecut=   100.00 Ry     beta= 0.40
     Davidson diagonalization with overlap
     ethr =  3.66E-10,  avg # of iterations =  4.7

     negative rho (up, down):  0.000E+00 9.649E-04

     total cpu time spent up to now is    39161.3 secs

     total energy              =   -2126.06315469 Ry
     estimated scf accuracy    <       0.00000064 Ry

     total magnetization       =    19.00 Bohr mag/cell
     absolute magnetization    =    19.05 Bohr mag/cell

     iteration # 20     ecut=   100.00 Ry     beta= 0.40
     Davidson diagonalization with overlap
     ethr =  3.39E-10,  avg # of iterations =  2.0

     negative rho (up, down):  0.000E+00 9.650E-04

     total cpu time spent up to now is    44785.3 secs

     total energy              =   -2126.06315487 Ry
     estimated scf accuracy    <       0.00000019 Ry

     total magnetization       =    19.00 Bohr mag/cell
     absolute magnetization    =    19.05 Bohr mag/cell

     iteration # 21     ecut=   100.00 Ry     beta= 0.40
     Davidson diagonalization with overlap
     ethr =  1.01E-10,  avg # of iterations =  2.1

     negative rho (up, down):  0.000E+00 9.651E-04

     total cpu time spent up to now is    50875.3 secs

     total energy              =   -2126.06315507 Ry
     estimated scf accuracy    <       0.00000005 Ry

     total magnetization       =    19.00 Bohr mag/cell
     absolute magnetization    =    19.05 Bohr mag/cell

     iteration # 22     ecut=   100.00 Ry     beta= 0.40
     Davidson diagonalization with overlap
     ethr =  2.40E-11,  avg # of iterations =  3.2

     negative rho (up, down):  0.000E+00 9.650E-04

     total cpu time spent up to now is    57260.7 secs

     total energy              =   -2126.06315511 Ry
     estimated scf accuracy    <       0.00000015 Ry

     total magnetization       =    19.00 Bohr mag/cell
     absolute magnetization    =    19.05 Bohr mag/cell

     iteration # 23     ecut=   100.00 Ry     beta= 0.40
     Davidson diagonalization with overlap
     ethr =  2.40E-11,  avg # of iterations =  1.0

     negative rho (up, down):  0.000E+00 9.650E-04

     total cpu time spent up to now is    62521.8 secs

     total energy              =   -2126.06315512 Ry
     estimated scf accuracy    <       0.00000001 Ry

     total magnetization       =    19.00 Bohr mag/cell
     absolute magnetization    =    19.05 Bohr mag/cell

     iteration # 24     ecut=   100.00 Ry     beta= 0.40
     Davidson diagonalization with overlap
     ethr =  6.57E-12,  avg # of iterations =  2.6

     negative rho (up, down):  0.000E+00 9.649E-04

     total cpu time spent up to now is    66374.1 secs

     total energy              =   -2126.06315513 Ry
     estimated scf accuracy    <          8.4E-09 Ry

     total magnetization       =    19.00 Bohr mag/cell
     absolute magnetization    =    19.05 Bohr mag/cell

     iteration # 25     ecut=   100.00 Ry     beta= 0.40
     Davidson diagonalization with overlap
     ethr =  4.45E-12,  avg # of iterations =  2.0

     negative rho (up, down):  0.000E+00 9.649E-04

     total cpu time spent up to now is    67653.8 secs

     total energy              =   -2126.06315513 Ry
     estimated scf accuracy    <          2.3E-09 Ry

     total magnetization       =    19.00 Bohr mag/cell
     absolute magnetization    =    19.05 Bohr mag/cell

     iteration # 26     ecut=   100.00 Ry     beta= 0.40
     Davidson diagonalization with overlap
     ethr =  1.21E-12,  avg # of iterations =  3.7

     negative rho (up, down):  0.000E+00 9.649E-04

     total cpu time spent up to now is    69367.5 secs

     total energy              =   -2126.06315514 Ry
     estimated scf accuracy    <          1.3E-09 Ry

     total magnetization       =    19.00 Bohr mag/cell
     absolute magnetization    =    19.05 Bohr mag/cell

     iteration # 27     ecut=   100.00 Ry     beta= 0.40
     Davidson diagonalization with overlap
     ethr =  7.08E-13,  avg # of iterations =  2.1

     negative rho (up, down):  0.000E+00 9.649E-04

     total cpu time spent up to now is    73689.9 secs

     total energy              =   -2126.06315514 Ry
     estimated scf accuracy    <          9.0E-10 Ry

     total magnetization       =    19.00 Bohr mag/cell
     absolute magnetization    =    19.05 Bohr mag/cell

     iteration # 28     ecut=   100.00 Ry     beta= 0.40
     Davidson diagonalization with overlap
     ethr =  4.74E-13,  avg # of iterations =  2.0

     negative rho (up, down):  0.000E+00 9.649E-04

     total cpu time spent up to now is    79458.0 secs

     total energy              =   -2126.06315514 Ry
     estimated scf accuracy    <          3.4E-10 Ry

     total magnetization       =    19.00 Bohr mag/cell
     absolute magnetization    =    19.05 Bohr mag/cell

     iteration # 29     ecut=   100.00 Ry     beta= 0.40
     Davidson diagonalization with overlap
     ethr =  1.77E-13,  avg # of iterations =  2.8

     negative rho (up, down):  0.000E+00 9.649E-04

     Magnetic moment per site:
     atom:    1    charge:    7.9873    magn:    0.0008    constr:    0.0000
     atom:    2    charge:   13.0059    magn:    3.7031    constr:    0.0000
     atom:    3    charge:   13.0112    magn:    3.6814    constr:    0.0000
     atom:    4    charge:   13.0059    magn:    3.7031    constr:    0.0000
     atom:    5    charge:   13.0112    magn:    3.6814    constr:    0.0000
     atom:    6    charge:    0.8313    magn:    0.0097    constr:    0.0000
     atom:    7    charge:    0.8334    magn:    0.0075    constr:    0.0000
     atom:    8    charge:    0.8313    magn:    0.0097    constr:    0.0000
     atom:    9    charge:    0.8334    magn:    0.0075    constr:    0.0000
     atom:   10    charge:    4.2660    magn:    0.1323    constr:    0.0000
     atom:   11    charge:    4.2698    magn:    0.0805    constr:    0.0000
     atom:   12    charge:    4.2660    magn:    0.1323    constr:    0.0000
     atom:   13    charge:    4.2698    magn:    0.0805    constr:    0.0000
     atom:   14    charge:    4.2126    magn:    0.0966    constr:    0.0000
     atom:   15    charge:    4.2110    magn:    0.1478    constr:    0.0000
     atom:   16    charge:    4.2126    magn:    0.0966    constr:    0.0000
     atom:   17    charge:    4.2111    magn:    0.1478    constr:    0.0000
     atom:   18    charge:    4.2381    magn:    0.1531    constr:    0.0000
     atom:   19    charge:    4.2410    magn:    0.1331    constr:    0.0000
     atom:   20    charge:    4.2356    magn:    0.1452    constr:    0.0000
     atom:   21    charge:    4.2374    magn:    0.1194    constr:    0.0000
     atom:   22    charge:    4.2381    magn:    0.1531    constr:    0.0000
     atom:   23    charge:    4.2410    magn:    0.1331    constr:    0.0000
     atom:   24    charge:    4.2357    magn:    0.1452    constr:    0.0000
     atom:   25    charge:    4.2374    magn:    0.1194    constr:    0.0000

     total cpu time spent up to now is    85706.8 secs

     End of self-consistent calculation

 ------ SPIN UP ------------


          k = 0.0000 0.0000 0.0000 ( 38253 PWs)   bands (ev):

   -85.9370 -85.9366 -85.8038 -85.8027 -52.0556 -52.0552 -51.9635 -51.9625
   -51.9106 -51.9101 -51.8019 -51.8013 -51.7679 -51.7669 -51.6472 -51.6460
   -45.1551 -17.1843 -17.1337 -17.1032 -16.4237 -16.2475 -16.1970 -16.0608
   -14.1116 -14.0918 -14.0140 -13.9962 -13.9184 -13.8964 -13.7577 -13.7399
   -13.5872 -13.5286 -13.5182 -13.4964  -4.5095  -4.1130  -3.9744  -3.6779
    -2.5104  -2.3183  -2.1460  -2.1287  -1.8756  -1.6769  -1.6433  -1.6158
    -1.5288  -1.2696  -1.1459  -0.8684  -0.8146  -0.7729  -0.3260  -0.2887
    -0.0679  -0.0553   0.0574   0.2237   0.3169   0.3400   0.4339   0.6353
     0.6598   0.7486   0.7918   0.8413   1.1084   1.1715   1.2374   1.2426
     1.3792   1.3967   1.5405   1.6043   1.7200   1.8046   1.8585   1.9611
     2.1342   2.1519   2.1951   2.3051   2.3742   2.3832   2.4226   2.5419
     2.6546   2.7229   2.7751   2.8384   2.8994   3.1114   3.1842   3.3461
     3.3562   3.4000   3.4993   3.5483   3.5931   3.7503   4.0814   4.1756
     8.0284  10.0870  10.5455  10.7684  11.1847  11.7045  12.0645  12.2122
    12.5350  12.6187

     occupation numbers 
     1.0000   1.0000   1.0000   1.0000   1.0000   1.0000   1.0000   1.0000
     1.0000   1.0000   1.0000   1.0000   1.0000   1.0000   1.0000   1.0000
     1.0000   1.0000   1.0000   1.0000   1.0000   1.0000   1.0000   1.0000
     1.0000   1.0000   1.0000   1.0000   1.0000   1.0000   1.0000   1.0000
     1.0000   1.0000   1.0000   1.0000   1.0000   1.0000   1.0000   1.0000
     1.0000   1.0000   1.0000   1.0000   1.0000   1.0000   1.0000   1.0000
     1.0000   1.0000   1.0000   1.0000   1.0000   1.0000   1.0000   1.0000
     1.0000   1.0000   1.0000   1.0000   1.0000   1.0000   1.0000   1.0000
     1.0000   1.0000   1.0000   1.0000   1.0000   1.0000   1.0000   1.0000
     1.0000   1.0000   1.0000   1.0000   1.0000   1.0000   1.0000   1.0000
     1.0000   1.0000   1.0000   1.0000   1.0000   1.0000   1.0000   1.0000
     1.0000   1.0000   1.0000   1.0000   1.0000   1.0000   1.0000   1.0000
     1.0000   1.0000   1.0000   1.0000   1.0000   1.0000   1.0000   1.0000
     0.0000   0.0000   0.0000   0.0000   0.0000   0.0000   0.0000   0.0000
     0.0000   0.0000

          k = 0.0000 0.0000 0.2454 ( 38275 PWs)   bands (ev):

   -85.9370 -85.9366 -85.8038 -85.8027 -52.0556 -52.0552 -51.9635 -51.9625
   -51.9106 -51.9101 -51.8019 -51.8013 -51.7679 -51.7669 -51.6472 -51.6460
   -45.1551 -17.1834 -17.1333 -17.1056 -16.4058 -16.2380 -16.1918 -16.0613
   -14.1254 -14.1036 -14.0305 -14.0082 -13.9159 -13.8937 -13.7616 -13.7451
   -13.5847 -13.5266 -13.5164 -13.4993  -4.4894  -4.1093  -3.9727  -3.6878
    -2.4622  -2.3125  -2.1093  -2.1015  -1.8713  -1.6823  -1.6799  -1.5870
    -1.4710  -1.2405  -1.1891  -0.8864  -0.8234  -0.7525  -0.3112  -0.2673
    -0.0737  -0.0231   0.0452   0.2243   0.3015   0.3415   0.4102   0.6274
     0.6579   0.7424   0.7784   0.8385   1.0648   1.1367   1.2030   1.2377
     1.3561   1.4610   1.4778   1.5856   1.7072   1.7936   1.8520   2.0165
     2.1023   2.1667   2.1984   2.2350   2.3443   2.4205   2.4701   2.4912
     2.6414   2.7292   2.7894   2.8031   2.8940   3.1573   3.1866   3.3434
     3.3681   3.4301   3.5087   3.5474   3.5970   3.7572   4.0568   4.1532
     8.1734  10.1658  10.5643  10.7823  11.2354  11.6543  12.0725  12.1762
    12.4389  12.6127

     occupation numbers 
     1.0000   1.0000   1.0000   1.0000   1.0000   1.0000   1.0000   1.0000
     1.0000   1.0000   1.0000   1.0000   1.0000   1.0000   1.0000   1.0000
     1.0000   1.0000   1.0000   1.0000   1.0000   1.0000   1.0000   1.0000
     1.0000   1.0000   1.0000   1.0000   1.0000   1.0000   1.0000   1.0000
     1.0000   1.0000   1.0000   1.0000   1.0000   1.0000   1.0000   1.0000
     1.0000   1.0000   1.0000   1.0000   1.0000   1.0000   1.0000   1.0000
     1.0000   1.0000   1.0000   1.0000   1.0000   1.0000   1.0000   1.0000
     1.0000   1.0000   1.0000   1.0000   1.0000   1.0000   1.0000   1.0000
     1.0000   1.0000   1.0000   1.0000   1.0000   1.0000   1.0000   1.0000
     1.0000   1.0000   1.0000   1.0000   1.0000   1.0000   1.0000   1.0000
     1.0000   1.0000   1.0000   1.0000   1.0000   1.0000   1.0000   1.0000
     1.0000   1.0000   1.0000   1.0000   1.0000   1.0000   1.0000   1.0000
     1.0000   1.0000   1.0000   1.0000   1.0000   1.0000   1.0000   1.0000
     0.0000   0.0000   0.0000   0.0000   0.0000   0.0000   0.0000   0.0000
     0.0000   0.0000

          k = 0.0000 0.0000 0.4908 ( 38314 PWs)   bands (ev):

   -85.9370 -85.9366 -85.8038 -85.8027 -52.0556 -52.0552 -51.9635 -51.9625
   -51.9106 -51.9101 -51.8019 -51.8013 -51.7679 -51.7669 -51.6472 -51.6460
   -45.1551 -17.1833 -17.1319 -17.1096 -16.3580 -16.2122 -16.1803 -16.0645
   -14.1595 -14.1324 -14.0728 -14.0460 -13.9041 -13.8840 -13.7728 -13.7596
   -13.5777 -13.5245 -13.5124 -13.5043  -4.4296  -4.0940  -3.9790  -3.7273
    -2.3344  -2.2782  -2.0611  -2.0068  -1.8535  -1.7103  -1.6812  -1.5647
    -1.3316  -1.2849  -1.1573  -1.0005  -0.7628  -0.6990  -0.2649  -0.2193
    -0.0476  -0.0006   0.0248   0.2333   0.2518   0.3252   0.3614   0.6127
     0.6583   0.7120   0.7634   0.8169   0.9701   1.0549   1.1369   1.2206
     1.2415   1.3548   1.5301   1.6106   1.6516   1.7526   1.8997   1.9965
     2.1002   2.1161   2.1488   2.2300   2.2534   2.3517   2.4504   2.5239
     2.6022   2.7942   2.7997   2.8910   2.9141   3.1775   3.2116   3.3604
     3.4076   3.5004   3.5285   3.5421   3.6200   3.7712   3.9816   4.0861
     8.5586  10.3822  10.5796  10.8328  11.3757  11.5847  11.9298  12.1257
    12.2840  12.4757

     occupation numbers 
     1.0000   1.0000   1.0000   1.0000   1.0000   1.0000   1.0000   1.0000
     1.0000   1.0000   1.0000   1.0000   1.0000   1.0000   1.0000   1.0000
     1.0000   1.0000   1.0000   1.0000   1.0000   1.0000   1.0000   1.0000
     1.0000   1.0000   1.0000   1.0000   1.0000   1.0000   1.0000   1.0000
     1.0000   1.0000   1.0000   1.0000   1.0000   1.0000   1.0000   1.0000
     1.0000   1.0000   1.0000   1.0000   1.0000   1.0000   1.0000   1.0000
     1.0000   1.0000   1.0000   1.0000   1.0000   1.0000   1.0000   1.0000
     1.0000   1.0000   1.0000   1.0000   1.0000   1.0000   1.0000   1.0000
     1.0000   1.0000   1.0000   1.0000   1.0000   1.0000   1.0000   1.0000
     1.0000   1.0000   1.0000   1.0000   1.0000   1.0000   1.0000   1.0000
     1.0000   1.0000   1.0000   1.0000   1.0000   1.0000   1.0000   1.0000
     1.0000   1.0000   1.0000   1.0000   1.0000   1.0000   1.0000   1.0000
     1.0000   1.0000   1.0000   1.0000   1.0000   1.0000   1.0000   1.0000
     0.0000   0.0000   0.0000   0.0000   0.0000   0.0000   0.0000   0.0000
     0.0000   0.0000

          k = 0.0000 0.0000 0.7363 ( 38338 PWs)   bands (ev):

   -85.9370 -85.9366 -85.8038 -85.8027 -52.0556 -52.0552 -51.9635 -51.9625
   -51.9106 -51.9101 -51.8019 -51.8013 -51.7679 -51.7669 -51.6472 -51.6460
   -45.1551 -17.1862 -17.1297 -17.1107 -16.2949 -16.1838 -16.1669 -16.0745
   -14.1957 -14.1624 -14.1227 -14.0978 -13.8829 -13.8678 -13.7901 -13.7805
   -13.5675 -13.5282 -13.5154 -13.4994  -4.3347  -4.0639  -4.0107  -3.8039
    -2.2576  -2.1341  -2.0302  -1.8979  -1.8117  -1.7223  -1.6701  -1.5314
    -1.4442  -1.1587  -1.0947  -1.0340  -0.6454  -0.6134  -0.1948  -0.1596
    -0.0864  -0.0261   0.0631   0.1698   0.2085   0.2742   0.3970   0.5834
     0.6081   0.6710   0.7448   0.7948   0.8620   0.9083   1.0055   1.1059
     1.2537   1.3062   1.4856   1.5542   1.7327   1.7724   1.8727   1.9842
     1.9923   2.0511   2.1364   2.1477   2.2225   2.2358   2.3759   2.4493
     2.6740   2.8573   2.8872   3.0366   3.0964   3.1803   3.2023   3.3791
     3.4739   3.5292   3.5505   3.5772   3.6680   3.7772   3.8552   3.9776
     9.0799  10.4719  10.6891  10.9438  11.4248  11.6195  11.7647  11.9854
    12.1856  12.2771

     occupation numbers 
     1.0000   1.0000   1.0000   1.0000   1.0000   1.0000   1.0000   1.0000
     1.0000   1.0000   1.0000   1.0000   1.0000   1.0000   1.0000   1.0000
     1.0000   1.0000   1.0000   1.0000   1.0000   1.0000   1.0000   1.0000
     1.0000   1.0000   1.0000   1.0000   1.0000   1.0000   1.0000   1.0000
     1.0000   1.0000   1.0000   1.0000   1.0000   1.0000   1.0000   1.0000
     1.0000   1.0000   1.0000   1.0000   1.0000   1.0000   1.0000   1.0000
     1.0000   1.0000   1.0000   1.0000   1.0000   1.0000   1.0000   1.0000
     1.0000   1.0000   1.0000   1.0000   1.0000   1.0000   1.0000   1.0000
     1.0000   1.0000   1.0000   1.0000   1.0000   1.0000   1.0000   1.0000
     1.0000   1.0000   1.0000   1.0000   1.0000   1.0000   1.0000   1.0000
     1.0000   1.0000   1.0000   1.0000   1.0000   1.0000   1.0000   1.0000
     1.0000   1.0000   1.0000   1.0000   1.0000   1.0000   1.0000   1.0000
     1.0000   1.0000   1.0000   1.0000   1.0000   1.0000   1.0000   1.0000
     0.0000   0.0000   0.0000   0.0000   0.0000   0.0000   0.0000   0.0000
     0.0000   0.0000

          k = 0.0000 0.0000 0.9817 ( 38334 PWs)   bands (ev):

   -85.9370 -85.9366 -85.8038 -85.8027 -52.0556 -52.0552 -51.9635 -51.9625
   -51.9106 -51.9101 -51.8019 -51.8013 -51.7679 -51.7669 -51.6472 -51.6460
   -45.1551 -17.1896 -17.1284 -17.1094 -16.2366 -16.1909 -16.1367 -16.0930
   -14.2163 -14.1798 -14.1539 -14.1400 -13.8597 -13.8512 -13.8100 -13.8001
   -13.5560 -13.5388 -13.5162 -13.4944  -4.2183  -4.1065  -3.9896  -3.8962
    -2.1995  -2.1135  -1.9121  -1.8428  -1.7475  -1.7159  -1.6676  -1.6058
    -1.4264  -1.3081  -0.9441  -0.9136  -0.4769  -0.4539  -0.2480  -0.2016
    -0.1145  -0.0799   0.0599   0.1026   0.2267   0.3258   0.4189   0.4689
     0.5580   0.5985   0.6821   0.7763   0.8205   0.8585   0.8793   1.0896
     1.2815   1.3587   1.4112   1.4549   1.7700   1.8164   1.8871   1.9022
     1.9459   2.0187   2.0593   2.1506   2.1584   2.1787   2.3169   2.4395
     2.7063   2.8688   2.9581   3.1320   3.1652   3.2493   3.3617   3.3985
     3.4518   3.5505   3.5698   3.6253   3.6844   3.7383   3.7741   3.8500
     9.6365  10.1420  11.0254  11.1287  11.2924  11.4065  11.8626  11.8977
    12.1598  12.2168

     occupation numbers 
     1.0000   1.0000   1.0000   1.0000   1.0000   1.0000   1.0000   1.0000
     1.0000   1.0000   1.0000   1.0000   1.0000   1.0000   1.0000   1.0000
     1.0000   1.0000   1.0000   1.0000   1.0000   1.0000   1.0000   1.0000
     1.0000   1.0000   1.0000   1.0000   1.0000   1.0000   1.0000   1.0000
     1.0000   1.0000   1.0000   1.0000   1.0000   1.0000   1.0000   1.0000
     1.0000   1.0000   1.0000   1.0000   1.0000   1.0000   1.0000   1.0000
     1.0000   1.0000   1.0000   1.0000   1.0000   1.0000   1.0000   1.0000
     1.0000   1.0000   1.0000   1.0000   1.0000   1.0000   1.0000   1.0000
     1.0000   1.0000   1.0000   1.0000   1.0000   1.0000   1.0000   1.0000
     1.0000   1.0000   1.0000   1.0000   1.0000   1.0000   1.0000   1.0000
     1.0000   1.0000   1.0000   1.0000   1.0000   1.0000   1.0000   1.0000
     1.0000   1.0000   1.0000   1.0000   1.0000   1.0000   1.0000   1.0000
     1.0000   1.0000   1.0000   1.0000   1.0000   1.0000   1.0000   1.0000
     0.0000   0.0000   0.0000   0.0000   0.0000   0.0000   0.0000   0.0000
     0.0000   0.0000

          k = 0.0000 0.2510 0.0000 ( 38299 PWs)   bands (ev):

   -85.9370 -85.9366 -85.8038 -85.8027 -52.0556 -52.0552 -51.9635 -51.9625
   -51.9106 -51.9101 -51.8019 -51.8013 -51.7679 -51.7669 -51.6472 -51.6460
   -45.1551 -17.1846 -17.1338 -17.1031 -16.4063 -16.2435 -16.1960 -16.0780
   -14.1088 -14.0866 -14.0175 -13.9994 -13.9174 -13.9035 -13.7937 -13.7495
   -13.5618 -13.5191 -13.5149 -13.4962  -4.4809  -4.0865  -3.9970  -3.6887
    -2.4782  -2.3000  -2.1513  -2.1324  -1.8611  -1.6661  -1.6337  -1.5864
    -1.5073  -1.2769  -1.1337  -0.8763  -0.8281  -0.7507  -0.2767  -0.2345
    -0.1049  -0.0794   0.0345   0.0877   0.2434   0.4111   0.5254   0.6532
     0.6917   0.7399   0.7947   0.8296   0.9424   0.9535   1.1984   1.2632
     1.3745   1.5624   1.5805   1.7088   1.7319   1.7429   1.8372   1.9079
     2.1059   2.1226   2.1900   2.2126   2.3661   2.4070   2.5019   2.6415
     2.6532   2.6942   2.7182   2.8901   2.9087   3.1131   3.1698   3.3146
     3.3367   3.3824   3.4944   3.5389   3.5737   3.7969   4.0815   4.1490
     8.1893  10.1805  10.6239  10.6787  11.2662  11.6690  12.1290  12.2954
    12.4599  12.6112

     occupation numbers 
     1.0000   1.0000   1.0000   1.0000   1.0000   1.0000   1.0000   1.0000
     1.0000   1.0000   1.0000   1.0000   1.0000   1.0000   1.0000   1.0000
     1.0000   1.0000   1.0000   1.0000   1.0000   1.0000   1.0000   1.0000
     1.0000   1.0000   1.0000   1.0000   1.0000   1.0000   1.0000   1.0000
     1.0000   1.0000   1.0000   1.0000   1.0000   1.0000   1.0000   1.0000
     1.0000   1.0000   1.0000   1.0000   1.0000   1.0000   1.0000   1.0000
     1.0000   1.0000   1.0000   1.0000   1.0000   1.0000   1.0000   1.0000
     1.0000   1.0000   1.0000   1.0000   1.0000   1.0000   1.0000   1.0000
     1.0000   1.0000   1.0000   1.0000   1.0000   1.0000   1.0000   1.0000
     1.0000   1.0000   1.0000   1.0000   1.0000   1.0000   1.0000   1.0000
     1.0000   1.0000   1.0000   1.0000   1.0000   1.0000   1.0000   1.0000
     1.0000   1.0000   1.0000   1.0000   1.0000   1.0000   1.0000   1.0000
     1.0000   1.0000   1.0000   1.0000   1.0000   1.0000   1.0000   1.0000
     0.0000   0.0000   0.0000   0.0000   0.0000   0.0000   0.0000   0.0000
     0.0000   0.0000

          k = 0.0000 0.2510 0.2454 ( 38259 PWs)   bands (ev):

   -85.9370 -85.9366 -85.8038 -85.8027 -52.0556 -52.0552 -51.9635 -51.9625
   -51.9106 -51.9101 -51.8019 -51.8013 -51.7679 -51.7669 -51.6472 -51.6460
   -45.1551 -17.1831 -17.1335 -17.1055 -16.3912 -16.2317 -16.1933 -16.0758
   -14.1235 -14.0980 -14.0369 -14.0140 -13.9125 -13.9006 -13.7920 -13.7529
   -13.5629 -13.5185 -13.5142 -13.4973  -4.4612  -4.0833  -3.9930  -3.6986
    -2.4310  -2.2907  -2.1146  -2.1084  -1.8576  -1.6926  -1.6454  -1.5468
    -1.4582  -1.2454  -1.1767  -0.9307  -0.8027  -0.7324  -0.2626  -0.2255
    -0.1193  -0.0522   0.0149   0.1147   0.2266   0.3953   0.4846   0.6477
     0.6859   0.7358   0.7653   0.8412   0.9253   0.9562   1.1596   1.2563
     1.4654   1.4993   1.5632   1.6611   1.7135   1.7631   1.8202   1.9594
     2.1118   2.1141   2.1742   2.1922   2.3330   2.3937   2.4638   2.6043
     2.6402   2.7196   2.7446   2.8684   2.8849   3.1585   3.1809   3.3029
     3.3455   3.4198   3.4998   3.5497   3.5770   3.8059   4.0628   4.1355
     8.3274  10.2613  10.6052  10.7459  11.2971  11.6363  12.1298  12.2189
    12.4343  12.5929

     occupation numbers 
     1.0000   1.0000   1.0000   1.0000   1.0000   1.0000   1.0000   1.0000
     1.0000   1.0000   1.0000   1.0000   1.0000   1.0000   1.0000   1.0000
     1.0000   1.0000   1.0000   1.0000   1.0000   1.0000   1.0000   1.0000
     1.0000   1.0000   1.0000   1.0000   1.0000   1.0000   1.0000   1.0000
     1.0000   1.0000   1.0000   1.0000   1.0000   1.0000   1.0000   1.0000
     1.0000   1.0000   1.0000   1.0000   1.0000   1.0000   1.0000   1.0000
     1.0000   1.0000   1.0000   1.0000   1.0000   1.0000   1.0000   1.0000
     1.0000   1.0000   1.0000   1.0000   1.0000   1.0000   1.0000   1.0000
     1.0000   1.0000   1.0000   1.0000   1.0000   1.0000   1.0000   1.0000
     1.0000   1.0000   1.0000   1.0000   1.0000   1.0000   1.0000   1.0000
     1.0000   1.0000   1.0000   1.0000   1.0000   1.0000   1.0000   1.0000
     1.0000   1.0000   1.0000   1.0000   1.0000   1.0000   1.0000   1.0000
     1.0000   1.0000   1.0000   1.0000   1.0000   1.0000   1.0000   1.0000
     0.0000   0.0000   0.0000   0.0000   0.0000   0.0000   0.0000   0.0000
     0.0000   0.0000

          k = 0.0000 0.2510 0.4908 ( 38306 PWs)   bands (ev):

   -85.9370 -85.9366 -85.8038 -85.8027 -52.0556 -52.0552 -51.9635 -51.9625
   -51.9106 -51.9101 -51.8019 -51.8013 -51.7679 -51.7669 -51.6472 -51.6460
   -45.1551 -17.1824 -17.1321 -17.1096 -16.3468 -16.2046 -16.1831 -16.0749
   -14.1604 -14.1287 -14.0807 -14.0540 -13.8994 -13.8900 -13.7945 -13.7647
   -13.5616 -13.5187 -13.5122 -13.4987  -4.4028  -4.0708  -3.9923  -3.7360
    -2.3092  -2.2504  -2.0705  -2.0121  -1.8409  -1.7192  -1.6464  -1.5179
    -1.3180  -1.2777  -1.1581  -1.0345  -0.7575  -0.6879  -0.2242  -0.1930
    -0.1453  -0.0501   0.0092   0.1671   0.2260   0.3633   0.4053   0.6311
     0.6738   0.7001   0.7595   0.8223   0.8932   0.9595   1.0882   1.2495
     1.2943   1.4476   1.5799   1.6223   1.6577   1.7358   1.8980   1.9917
     2.0014   2.1107   2.1525   2.1919   2.2592   2.3237   2.4349   2.5118
     2.6301   2.7592   2.7908   2.8852   2.9411   3.1813   3.1943   3.3602
     3.3644   3.4634   3.5114   3.5621   3.6195   3.8143   4.0150   4.0858
     8.6973  10.4763  10.6189  10.8374  11.4148  11.5874  11.9943  12.1518
    12.2890  12.4935

     occupation numbers 
     1.0000   1.0000   1.0000   1.0000   1.0000   1.0000   1.0000   1.0000
     1.0000   1.0000   1.0000   1.0000   1.0000   1.0000   1.0000   1.0000
     1.0000   1.0000   1.0000   1.0000   1.0000   1.0000   1.0000   1.0000
     1.0000   1.0000   1.0000   1.0000   1.0000   1.0000   1.0000   1.0000
     1.0000   1.0000   1.0000   1.0000   1.0000   1.0000   1.0000   1.0000
     1.0000   1.0000   1.0000   1.0000   1.0000   1.0000   1.0000   1.0000
     1.0000   1.0000   1.0000   1.0000   1.0000   1.0000   1.0000   1.0000
     1.0000   1.0000   1.0000   1.0000   1.0000   1.0000   1.0000   1.0000
     1.0000   1.0000   1.0000   1.0000   1.0000   1.0000   1.0000   1.0000
     1.0000   1.0000   1.0000   1.0000   1.0000   1.0000   1.0000   1.0000
     1.0000   1.0000   1.0000   1.0000   1.0000   1.0000   1.0000   1.0000
     1.0000   1.0000   1.0000   1.0000   1.0000   1.0000   1.0000   1.0000
     1.0000   1.0000   1.0000   1.0000   1.0000   1.0000   1.0000   1.0000
     0.0000   0.0000   0.0000   0.0000   0.0000   0.0000   0.0000   0.0000
     0.0000   0.0000

          k = 0.0000 0.2510 0.7363 ( 38323 PWs)   bands (ev):

   -85.9370 -85.9366 -85.8038 -85.8027 -52.0556 -52.0552 -51.9635 -51.9625
   -51.9106 -51.9101 -51.8019 -51.8013 -51.7679 -51.7669 -51.6472 -51.6460
   -45.1551 -17.1852 -17.1297 -17.1108 -16.2869 -16.1829 -16.1628 -16.0806
   -14.1996 -14.1621 -14.1296 -14.1070 -13.8805 -13.8720 -13.8036 -13.7832
   -13.5571 -13.5233 -13.5134 -13.4941  -4.3108  -4.0519  -4.0072  -3.8077
    -2.2324  -2.1175  -2.0307  -1.9023  -1.8019  -1.7303  -1.6360  -1.4948
    -1.4165  -1.1735  -1.0953  -1.0356  -0.6702  -0.6185  -0.2331  -0.1778
    -0.1517  -0.0914   0.0852   0.1941   0.2497   0.3027   0.3929   0.5729
     0.6343   0.7040   0.7408   0.7810   0.8485   0.9270   0.9760   1.0619
     1.2371   1.3457   1.5331   1.5516   1.7303   1.7636   1.8560   1.9061
     2.0019   2.0566   2.1281   2.1722   2.1928   2.2459   2.3766   2.4319
     2.6563   2.7945   2.8584   3.0081   3.0930   3.1618   3.2022   3.3823
     3.4138   3.4845   3.5452   3.5805   3.6911   3.8136   3.9417   4.0054
     9.2031  10.5443  10.7756  10.9615  11.4592  11.6591  11.8232  12.0364
    12.1683  12.2221

     occupation numbers 
     1.0000   1.0000   1.0000   1.0000   1.0000   1.0000   1.0000   1.0000
     1.0000   1.0000   1.0000   1.0000   1.0000   1.0000   1.0000   1.0000
     1.0000   1.0000   1.0000   1.0000   1.0000   1.0000   1.0000   1.0000
     1.0000   1.0000   1.0000   1.0000   1.0000   1.0000   1.0000   1.0000
     1.0000   1.0000   1.0000   1.0000   1.0000   1.0000   1.0000   1.0000
     1.0000   1.0000   1.0000   1.0000   1.0000   1.0000   1.0000   1.0000
     1.0000   1.0000   1.0000   1.0000   1.0000   1.0000   1.0000   1.0000
     1.0000   1.0000   1.0000   1.0000   1.0000   1.0000   1.0000   1.0000
     1.0000   1.0000   1.0000   1.0000   1.0000   1.0000   1.0000   1.0000
     1.0000   1.0000   1.0000   1.0000   1.0000   1.0000   1.0000   1.0000
     1.0000   1.0000   1.0000   1.0000   1.0000   1.0000   1.0000   1.0000
     1.0000   1.0000   1.0000   1.0000   1.0000   1.0000   1.0000   1.0000
     1.0000   1.0000   1.0000   1.0000   1.0000   1.0000   1.0000   1.0000
     0.0000   0.0000   0.0000   0.0000   0.0000   0.0000   0.0000   0.0000
     0.0000   0.0000

          k = 0.0000 0.2510 0.9817 ( 38330 PWs)   bands (ev):

   -85.9370 -85.9366 -85.8038 -85.8027 -52.0556 -52.0552 -51.9635 -51.9625
   -51.9106 -51.9101 -51.8019 -51.8013 -51.7679 -51.7669 -51.6472 -51.6460
   -45.1551 -17.1888 -17.1283 -17.1094 -16.2297 -16.1899 -16.1326 -16.0967
   -14.2211 -14.1864 -14.1565 -14.1489 -13.8640 -13.8517 -13.8163 -13.8029
   -13.5502 -13.5316 -13.5133 -13.4897  -4.1995  -4.0994  -3.9773  -3.8928
    -2.1769  -2.1065  -1.9016  -1.8426  -1.7510  -1.7320  -1.6217  -1.5769
    -1.3916  -1.3127  -0.9437  -0.9192  -0.5405  -0.4957  -0.3685  -0.3182
    -0.0577  -0.0255   0.1104   0.1674   0.2447   0.3533   0.4409   0.4841
     0.5849   0.6218   0.7161   0.7599   0.7850   0.8425   0.8747   1.0151
     1.2462   1.3476   1.4462   1.4690   1.7459   1.7951   1.8252   1.8665
     1.9727   2.0139   2.0816   2.1321   2.1953   2.2249   2.3124   2.4201
     2.6677   2.7986   2.9329   3.1134   3.1833   3.1909   3.2713   3.3744
     3.4053   3.4689   3.5966   3.6213   3.7396   3.8108   3.8509   3.9324
     9.7473  10.2372  11.0736  11.1966  11.3318  11.4941  11.9181  11.9437
    12.0598  12.1511

     occupation numbers 
     1.0000   1.0000   1.0000   1.0000   1.0000   1.0000   1.0000   1.0000
     1.0000   1.0000   1.0000   1.0000   1.0000   1.0000   1.0000   1.0000
     1.0000   1.0000   1.0000   1.0000   1.0000   1.0000   1.0000   1.0000
     1.0000   1.0000   1.0000   1.0000   1.0000   1.0000   1.0000   1.0000
     1.0000   1.0000   1.0000   1.0000   1.0000   1.0000   1.0000   1.0000
     1.0000   1.0000   1.0000   1.0000   1.0000   1.0000   1.0000   1.0000
     1.0000   1.0000   1.0000   1.0000   1.0000   1.0000   1.0000   1.0000
     1.0000   1.0000   1.0000   1.0000   1.0000   1.0000   1.0000   1.0000
     1.0000   1.0000   1.0000   1.0000   1.0000   1.0000   1.0000   1.0000
     1.0000   1.0000   1.0000   1.0000   1.0000   1.0000   1.0000   1.0000
     1.0000   1.0000   1.0000   1.0000   1.0000   1.0000   1.0000   1.0000
     1.0000   1.0000   1.0000   1.0000   1.0000   1.0000   1.0000   1.0000
     1.0000   1.0000   1.0000   1.0000   1.0000   1.0000   1.0000   1.0000
     0.0000   0.0000   0.0000   0.0000   0.0000   0.0000   0.0000   0.0000
     0.0000   0.0000

          k = 0.0000 0.5020 0.0000 ( 38283 PWs)   bands (ev):

   -85.9370 -85.9366 -85.8038 -85.8027 -52.0556 -52.0552 -51.9635 -51.9625
   -51.9106 -51.9101 -51.8019 -51.8013 -51.7679 -51.7669 -51.6472 -51.6460
   -45.1551 -17.1854 -17.1341 -17.1030 -16.3579 -16.2338 -16.1948 -16.1256
   -14.0991 -14.0734 -14.0255 -14.0105 -13.9347 -13.8954 -13.8516 -13.7794
   -13.5234 -13.5106 -13.4987 -13.4931  -4.4019  -4.0748  -4.0014  -3.7276
    -2.3941  -2.2560  -2.1703  -2.1431  -1.8353  -1.7043  -1.5353  -1.5063
    -1.4449  -1.2884  -1.1278  -0.9465  -0.7760  -0.6896  -0.2493  -0.1610
    -0.1184  -0.0864  -0.0633   0.0179   0.1245   0.3866   0.5959   0.6124
     0.6486   0.6885   0.7337   0.8029   0.8354   0.8644   1.0852   1.3339
     1.3870   1.5204   1.5887   1.7017   1.7589   1.8307   1.8512   1.9448
     2.0820   2.1077   2.1580   2.2025   2.3108   2.4014   2.4728   2.5592
     2.5929   2.6624   2.8730   2.9500   3.0138   3.1049   3.1648   3.2080
     3.3395   3.3839   3.4363   3.5092   3.5443   3.8798   4.0485   4.1187
     8.6188  10.3465  10.4391  10.8400  11.3706  11.5629  12.2942  12.3514
    12.5198  12.5998

     occupation numbers 
     1.0000   1.0000   1.0000   1.0000   1.0000   1.0000   1.0000   1.0000
     1.0000   1.0000   1.0000   1.0000   1.0000   1.0000   1.0000   1.0000
     1.0000   1.0000   1.0000   1.0000   1.0000   1.0000   1.0000   1.0000
     1.0000   1.0000   1.0000   1.0000   1.0000   1.0000   1.0000   1.0000
     1.0000   1.0000   1.0000   1.0000   1.0000   1.0000   1.0000   1.0000
     1.0000   1.0000   1.0000   1.0000   1.0000   1.0000   1.0000   1.0000
     1.0000   1.0000   1.0000   1.0000   1.0000   1.0000   1.0000   1.0000
     1.0000   1.0000   1.0000   1.0000   1.0000   1.0000   1.0000   1.0000
     1.0000   1.0000   1.0000   1.0000   1.0000   1.0000   1.0000   1.0000
     1.0000   1.0000   1.0000   1.0000   1.0000   1.0000   1.0000   1.0000
     1.0000   1.0000   1.0000   1.0000   1.0000   1.0000   1.0000   1.0000
     1.0000   1.0000   1.0000   1.0000   1.0000   1.0000   1.0000   1.0000
     1.0000   1.0000   1.0000   1.0000   1.0000   1.0000   1.0000   1.0000
     0.0000   0.0000   0.0000   0.0000   0.0000   0.0000   0.0000   0.0000
     0.0000   0.0000

          k = 0.0000 0.5020 0.2454 ( 38295 PWs)   bands (ev):

   -85.9370 -85.9366 -85.8038 -85.8027 -52.0556 -52.0552 -51.9635 -51.9625
   -51.9106 -51.9101 -51.8019 -51.8013 -51.7679 -51.7669 -51.6472 -51.6460
   -45.1551 -17.1836 -17.1339 -17.1053 -16.3462 -16.2208 -16.1930 -16.1198
   -14.1145 -14.0893 -14.0483 -14.0270 -13.9313 -13.8854 -13.8465 -13.7796
   -13.5256 -13.5121 -13.5016 -13.4898  -4.3836  -4.0683  -3.9973  -3.7363
    -2.3494  -2.2406  -2.1316  -2.1249  -1.8339  -1.7176  -1.5326  -1.4758
    -1.4053  -1.2598  -1.1669  -0.9977  -0.7603  -0.6719  -0.2735  -0.1864
    -0.1428  -0.0811  -0.0502   0.0566   0.1267   0.3927   0.5163   0.5648
     0.6764   0.7216   0.7591   0.8158   0.8324   0.8492   1.0839   1.3022
     1.4811   1.5376   1.5581   1.6578   1.7655   1.8138   1.8467   1.9110
[...]
     atom   10 type  3   force =     0.01212617    0.00052509    0.00506147
     atom   11 type  3   force =    -0.00638615    0.00087233    0.00052916
     atom   12 type  3   force =    -0.01212617   -0.00052509   -0.00506147
     atom   13 type  3   force =     0.00638615   -0.00087233   -0.00052916
     atom   14 type  3   force =     0.07713239    0.00091284   -0.01339489
     atom   15 type  3   force =    -0.07168382   -0.00054125   -0.01897050
     atom   16 type  3   force =    -0.07713239   -0.00091284    0.01339489
     atom   17 type  3   force =     0.07168382    0.00054125    0.01897050
     atom   18 type  3   force =    -0.00905890   -0.00629357    0.00409175
     atom   19 type  3   force =     0.00961183    0.00367558    0.00483699
     atom   20 type  3   force =     0.01048433   -0.00718882   -0.00432864
     atom   21 type  3   force =    -0.01342369    0.00485551   -0.00296554
     atom   22 type  3   force =     0.00905890    0.00629357   -0.00409175
     atom   23 type  3   force =    -0.00961183   -0.00367558   -0.00483699
     atom   24 type  3   force =    -0.01048433    0.00718882    0.00432864
     atom   25 type  3   force =     0.01342369   -0.00485551    0.00296554
     The non-local contrib.  to forces
     atom    1 type  2   force =     0.00000000    0.00000000    0.00000000
     atom    2 type  1   force =     0.12609058   -0.06793626    0.11820871
     atom    3 type  1   force =     0.05051780    0.00474448    0.11081651
     atom    4 type  1   force =    -0.12609058    0.06793626   -0.11820871
     atom    5 type  1   force =    -0.05051780   -0.00474448   -0.11081651
     atom    6 type  4   force =    -0.07761082    0.00371926   -0.07990211
     atom    7 type  4   force =     0.07635185    0.00103420   -0.06394682
     atom    8 type  4   force =     0.07761082   -0.00371926    0.07990211
     atom    9 type  4   force =    -0.07635185   -0.00103420    0.06394682
     atom   10 type  3   force =     0.32590246    0.02225128   -1.54965040
     atom   11 type  3   force =    -0.17799739    0.02046216   -1.53037129
     atom   12 type  3   force =    -0.32590246   -0.02225128    1.54965040
     atom   13 type  3   force =     0.17799739   -0.02046216    1.53037129
     atom   14 type  3   force =     1.25075283   -0.00248800   -0.51059755
     atom   15 type  3   force =    -1.22043996   -0.01471618   -0.64393999
     atom   16 type  3   force =    -1.25075283    0.00248800    0.51059755
     atom   17 type  3   force =     1.22043996    0.01471618    0.64393999
     atom   18 type  3   force =    -0.55213029   -1.02832144    0.72394325
     atom   19 type  3   force =     0.60320732    1.02771575    0.80514540
     atom   20 type  3   force =     0.59872054   -1.05525859   -0.72621123
     atom   21 type  3   force =    -0.65990730    1.04831238   -0.67722123
     atom   22 type  3   force =     0.55213029    1.02832144   -0.72394325
     atom   23 type  3   force =    -0.60320732   -1.02771575   -0.80514540
     atom   24 type  3   force =    -0.59872054    1.05525859    0.72621123
     atom   25 type  3   force =     0.65990730   -1.04831238    0.67722123
     The ionic contribution  to forces
     atom    1 type  2   force =    -0.00000312    0.00005276   -0.00004005
     atom    2 type  1   force =    -0.97605233    0.75648477   -0.43602023
     atom    3 type  1   force =   -10.62471495   -1.29810256   -0.22539862
     atom    4 type  1   force =     0.97583365   -0.75645504    0.43589642
     atom    5 type  1   force =    10.62481990    1.29834584    0.22537126
     atom    6 type  4   force =    -5.49690737    0.00827675    0.06055160
     atom    7 type  4   force =     2.46157602   -1.51732401    0.53148390
     atom    8 type  4   force =     5.49696781   -0.00827813   -0.06068144
     atom    9 type  4   force =    -2.46171069    1.51731617   -0.53114939
     atom   10 type  3   force =   -11.15302643   -0.10297642    3.30579607
     atom   11 type  3   force =     5.67076272   -2.39450851    2.47717359
     atom   12 type  3   force =    11.15318736    0.10295876   -3.30552320
     atom   13 type  3   force =    -5.67073804    2.39449280   -2.47754373
     atom   14 type  3   force =     0.44978200    2.64024063    3.34829372
     atom   15 type  3   force =    -2.86924057    0.09203704    5.60885456
     atom   16 type  3   force =    -0.44944471   -2.64024708   -3.34820489
     atom   17 type  3   force =     2.86911445   -0.09200273   -5.60883108
     atom   18 type  3   force =    -5.18328275    2.85993842   -2.68936928
     atom   19 type  3   force =     1.69517065   -2.44541417   -3.15446737
     atom   20 type  3   force =     5.48484223    3.04370472    2.76615149
     atom   21 type  3   force =     0.94036000   -2.75774894    1.01535793
     atom   22 type  3   force =     5.18327789   -2.86015723    2.68925823
     atom   23 type  3   force =    -1.69527665    2.44528338    3.15456445
     atom   24 type  3   force =    -5.48479007   -3.04368999   -2.76614648
     atom   25 type  3   force =    -0.94050698    2.75777276   -1.01537746
     The local contribution  to forces
     atom    1 type  2   force =    -0.00490657   -0.00184267   -0.00229765
     atom    2 type  1   force =     0.83857283   -0.69517506    0.30667514
     atom    3 type  1   force =    10.54847725    1.29134628    0.10991650
     atom    4 type  1   force =    -0.86241912    0.68394048   -0.31737757
     atom    5 type  1   force =   -10.56815136   -1.30005325   -0.12095132
     atom    6 type  4   force =     5.50946514   -0.01305417   -0.00380626
     atom    7 type  4   force =    -2.47976020    1.51749477   -0.48528648
     atom    8 type  4   force =    -5.50940122    0.01296763    0.00369710
     atom    9 type  4   force =     2.47979366   -1.51743634    0.48540230
     atom   10 type  3   force =    10.84107392    0.08012095   -1.76509034
     atom   11 type  3   force =    -5.50417908    2.37388326   -0.96164885
     atom   12 type  3   force =   -10.84502938   -0.08280686    1.76393382
     atom   13 type  3   force =     5.49878776   -2.37628138    0.95802189
     atom   14 type  3   force =    -1.61307903   -2.63811011   -2.85756389
     atom   15 type  3   force =     4.00423550   -0.07932700   -4.99189075
     atom   16 type  3   force =     1.60960592    2.63539157    2.85516663
     atom   17 type  3   force =    -4.00824791    0.07666381    4.98904720
     atom   18 type  3   force =     5.71850138   -1.84813325    1.97492180
     atom   19 type  3   force =    -2.28604932    1.42902790    2.36058630
     atom   20 type  3   force =    -6.07051810   -2.00618146   -2.05242918
     atom   21 type  3   force =    -0.30263476    1.72244092   -0.34856358
     atom   22 type  3   force =    -5.72422122    1.84594958   -1.97739348
     atom   23 type  3   force =     2.28070008   -1.43146050   -2.36286623
     atom   24 type  3   force =     6.06467083    2.00363281    2.04951737
     atom   25 type  3   force =     0.29720858   -1.72469027    0.34624248
     The core correction contribution to forces
     atom    1 type  2   force =     0.00000000    0.00000000    0.00000000
     atom    2 type  1   force =    -0.00161952    0.00085996   -0.00080792
     atom    3 type  1   force =     0.00001234   -0.00006492   -0.00005534
     atom    4 type  1   force =     0.00242240   -0.00048059    0.00115412
     atom    5 type  1   force =     0.00064063    0.00037237    0.00042301
     atom    6 type  4   force =     0.00796403   -0.00017719    0.00659648
     atom    7 type  4   force =    -0.00766217    0.00028019    0.00494914
     atom    8 type  4   force =    -0.00794783    0.00018373   -0.00658692
     atom    9 type  4   force =     0.00768066   -0.00027251   -0.00494570
     atom   10 type  3   force =    -0.00372317   -0.00022338    0.01356141
     atom   11 type  3   force =     0.00234047   -0.00017201    0.01337727
     atom   12 type  3   force =     0.00371846    0.00022189   -0.01356574
     atom   13 type  3   force =    -0.00234399    0.00017038   -0.01338119
     atom   14 type  3   force =    -0.01189292   -0.00009313    0.00531950
     atom   15 type  3   force =     0.01169222    0.00014978    0.00659344
     atom   16 type  3   force =     0.01188436    0.00009165   -0.00532014
     atom   17 type  3   force =    -0.01170272   -0.00015113   -0.00659536
     atom   18 type  3   force =     0.00498963    0.00902434   -0.00669251
     atom   19 type  3   force =    -0.00544777   -0.00893415   -0.00752332
     atom   20 type  3   force =    -0.00546129    0.00928483    0.00670449
     atom   21 type  3   force =     0.00596950   -0.00925758    0.00629151
     atom   22 type  3   force =    -0.00499454   -0.00903031    0.00669261
     atom   23 type  3   force =     0.00544079    0.00892801    0.00751905
     atom   24 type  3   force =     0.00545853   -0.00928576   -0.00670432
     atom   25 type  3   force =    -0.00597412    0.00925684   -0.00629597
     The Hubbard contrib.    to forces
     atom    1 type  2   force =     0.00000000    0.00000000    0.00000000
     atom    2 type  1   force =     0.00000000    0.00000000    0.00000000
     atom    3 type  1   force =     0.00000000    0.00000000    0.00000000
     atom    4 type  1   force =     0.00000000    0.00000000    0.00000000
     atom    5 type  1   force =     0.00000000    0.00000000    0.00000000
     atom    6 type  4   force =     0.00000000    0.00000000    0.00000000
     atom    7 type  4   force =     0.00000000    0.00000000    0.00000000
     atom    8 type  4   force =     0.00000000    0.00000000    0.00000000
     atom    9 type  4   force =     0.00000000    0.00000000    0.00000000
     atom   10 type  3   force =     0.00000000    0.00000000    0.00000000
     atom   11 type  3   force =     0.00000000    0.00000000    0.00000000
     atom   12 type  3   force =     0.00000000    0.00000000    0.00000000
     atom   13 type  3   force =     0.00000000    0.00000000    0.00000000
     atom   14 type  3   force =     0.00000000    0.00000000    0.00000000
     atom   15 type  3   force =     0.00000000    0.00000000    0.00000000
     atom   16 type  3   force =     0.00000000    0.00000000    0.00000000
     atom   17 type  3   force =     0.00000000    0.00000000    0.00000000
     atom   18 type  3   force =     0.00000000    0.00000000    0.00000000
     atom   19 type  3   force =     0.00000000    0.00000000    0.00000000
     atom   20 type  3   force =     0.00000000    0.00000000    0.00000000
     atom   21 type  3   force =     0.00000000    0.00000000    0.00000000
     atom   22 type  3   force =     0.00000000    0.00000000    0.00000000
     atom   23 type  3   force =     0.00000000    0.00000000    0.00000000
     atom   24 type  3   force =     0.00000000    0.00000000    0.00000000
     atom   25 type  3   force =     0.00000000    0.00000000    0.00000000
     The SCF correction term to forces
     atom    1 type  2   force =     0.00000001    0.00000000    0.00000000
     atom    2 type  1   force =    -0.00000667    0.00000118   -0.00000072
     atom    3 type  1   force =    -0.00000622   -0.00000087   -0.00000070
     atom    4 type  1   force =     0.00000670   -0.00000117    0.00000073
     atom    5 type  1   force =     0.00000627    0.00000089    0.00000072
     atom    6 type  4   force =    -0.00000056    0.00000017   -0.00000101
     atom    7 type  4   force =    -0.00000018   -0.00000030    0.00000056
     atom    8 type  4   force =     0.00000056   -0.00000017    0.00000101
     atom    9 type  4   force =     0.00000018    0.00000030   -0.00000056
     atom   10 type  3   force =    -0.00000023    0.00000013    0.00000075
     atom   11 type  3   force =     0.00000204   -0.00000029   -0.00000207
     atom   12 type  3   force =     0.00000023   -0.00000013   -0.00000075
     atom   13 type  3   force =    -0.00000204    0.00000029    0.00000207
     atom   14 type  3   force =    -0.00000269    0.00000022   -0.00000121
     atom   15 type  3   force =    -0.00000553   -0.00000001    0.00000125
     atom   16 type  3   force =     0.00000269   -0.00000022    0.00000121
     atom   17 type  3   force =     0.00000554    0.00000001   -0.00000125
     atom   18 type  3   force =    -0.00000168   -0.00000586   -0.00000283
     atom   19 type  3   force =    -0.00000016   -0.00000452    0.00000242
     atom   20 type  3   force =     0.00000201   -0.00000574    0.00000248
     atom   21 type  3   force =    -0.00000002   -0.00000440   -0.00000272
     atom   22 type  3   force =     0.00000169    0.00000586    0.00000283
     atom   23 type  3   force =     0.00000016    0.00000452   -0.00000242
     atom   24 type  3   force =    -0.00000201    0.00000574   -0.00000247
     atom   25 type  3   force =     0.00000003    0.00000440    0.00000272

     Total force =     0.195373     Total SCF correction =     0.000024


     Computing stress (Cartesian axis) and pressure


     negative rho (up, down):  0.000E+00 9.649E-04
          total   stress  (Ry/bohr**3)                   (kbar)     P=      -96.91
  -0.00129104  -0.00000119  -0.00001253         -189.92       -0.17       -1.84
  -0.00000119  -0.00040533  -0.00001365           -0.17      -59.63       -2.01
  -0.00001253  -0.00001365  -0.00027994           -1.84       -2.01      -41.18

     kinetic stress (kbar)  24884.87    -19.04      2.44
                              -19.04  25190.00     -0.33
                                2.44     -0.33  25016.41

     local   stress (kbar)  -3158.25  -2593.51    798.94
                            -2593.51 -15873.08    926.62
                              798.94    926.62  -8023.65

     nonloc. stress (kbar)  -6316.04     -2.11     -2.75
                               -2.11  -6288.60      2.20
                               -2.75      2.20  -6258.04

     hartree stress (kbar)  11477.10   1050.47   -311.50
                             1050.47  17881.95   -375.97
                             -311.50   -375.97  14149.65

     exc-cor stress (kbar)  -2650.50      1.38     -0.64
                                1.38  -2655.55     -0.37
                               -0.64     -0.37  -2654.38

     corecor stress (kbar)  -2963.91     -0.43      0.74
                               -0.43  -2964.30     -0.03
                                0.74     -0.03  -2967.38

     ewald   stress (kbar) -21463.19   1563.07   -489.09
                             1563.07 -15350.05   -554.12
                             -489.09   -554.12 -19303.80

     hubbard stress (kbar)      0.00      0.00      0.00
                                0.00      0.00      0.00
                                0.00      0.00      0.00

     DFT-D   stress (kbar)      0.00      0.00      0.00
                                0.00      0.00      0.00
                                0.00      0.00      0.00

     XDM     stress (kbar)      0.00      0.00      0.00
                                0.00      0.00      0.00
                                0.00      0.00      0.00

     dft-nl  stress (kbar)      0.00      0.00      0.00
                                0.00      0.00      0.00
                                0.00      0.00      0.00

     TS-vdW  stress (kbar)      0.00      0.00      0.00
                                0.00      0.00      0.00
                                0.00      0.00      0.00



     init_run     :    323.96s CPU    340.46s WALL (       1 calls)
     electrons    :  69423.99s CPU  85365.15s WALL (       1 calls)
     forces       :    354.73s CPU    356.63s WALL (       1 calls)
     stress       :    967.89s CPU   1347.24s WALL (       1 calls)

     Called by init_run:
     wfcinit      :    307.89s CPU    322.88s WALL (       1 calls)
     wfcinit:atom :      5.70s CPU      5.79s WALL (     316 calls)
     wfcinit:wfcr :    286.78s CPU    301.42s WALL (     316 calls)
     potinit      :      5.92s CPU      6.18s WALL (       1 calls)
     hinit0       :      6.10s CPU      6.49s WALL (       1 calls)

     Called by electrons:
     c_bands      :  58280.48s CPU  71797.46s WALL (      29 calls)
     sum_band     :  10954.26s CPU  13328.69s WALL (      29 calls)
     v_of_rho     :     51.39s CPU     59.07s WALL (      30 calls)
     v_h          :      2.84s CPU      3.42s WALL (      30 calls)
     v_xc         :     53.64s CPU     60.76s WALL (      32 calls)
     newd         :     84.39s CPU    116.12s WALL (      30 calls)
     PAW_pot      :     26.31s CPU     29.50s WALL (      30 calls)
     mix_rho      :     22.81s CPU     28.87s WALL (      29 calls)

     Called by c_bands:
     init_us_2    :    269.59s CPU    300.66s WALL (   19276 calls)
     cegterg      :  57497.53s CPU  70867.90s WALL (    9164 calls)

     Called by sum_band:
     sum_band:wei :      0.49s CPU      0.60s WALL (      29 calls)
     sum_band:loo :  10707.27s CPU  13029.61s WALL (      29 calls)
     sum_band:buf :     73.17s CPU     76.67s WALL (    9164 calls)
     sum_band:ini :    122.29s CPU    136.64s WALL (    9164 calls)
     sum_band:cal :   1435.51s CPU   1616.76s WALL (    9164 calls)
     sum_band:bec :      5.27s CPU      5.50s WALL (    9164 calls)
     addusdens    :    228.01s CPU    277.50s WALL (      29 calls)
     addusd:skk   :      1.04s CPU      1.19s WALL (      87 calls)
     addusd:dgemm :     66.18s CPU     95.68s WALL (     174 calls)
     addusd:qvan2 :    158.31s CPU    174.69s WALL (     174 calls)

     Called by *egterg:
     cdiaghg      :   1575.62s CPU   1907.24s WALL (   36420 calls)
     cegterg:over :   3371.84s CPU   3906.90s WALL (   27256 calls)
     cegterg:upda :   1356.08s CPU   1499.88s WALL (   27256 calls)
     cegterg:last :   2755.21s CPU   3092.49s WALL (   16538 calls)
     h_psi        :  43398.14s CPU  54718.93s WALL (   36736 calls)
     s_psi        :   2702.42s CPU   2991.65s WALL (   36736 calls)
     g_psi        :     30.17s CPU     32.30s WALL (   27256 calls)

     Called by h_psi:
     h_psi:calbec :   3569.10s CPU   4063.38s WALL (   36736 calls)
     vloc_psi     :  36933.78s CPU  47421.13s WALL (   36736 calls)
     add_vuspsi   :   2734.09s CPU   3064.59s WALL (   36736 calls)

     General routines
     calbec       :   5406.87s CPU   6114.55s WALL (   47480 calls)
     fft          :     53.99s CPU     63.06s WALL (     788 calls)
     ffts         :      3.69s CPU      4.66s WALL (     118 calls)
     fftw         :  45622.33s CPU  58185.63s WALL ( 5932022 calls)
     interpolate  :      5.88s CPU      6.93s WALL (      60 calls)

     Parallel routines
     fft_scatt_xy :    462.82s CPU    511.18s WALL ( 5932928 calls)
     fft_scatt_yz :  42177.43s CPU  54484.69s WALL ( 5932928 calls)

     PAW routines
     PAW_pot      :     26.31s CPU     29.50s WALL (      30 calls)
     PAW_symme    :      1.13s CPU      1.38s WALL (      59 calls)

     PWSCF        :     19h44m CPU   1d 0h16m WALL


   This run was terminated on:  16:56:53  20Dec2022            

=------------------------------------------------------------------------------=
   JOB DONE.
=------------------------------------------------------------------------------=
Note: The following floating-point exceptions are signalling: IEEE_DENORMAL
Note: The following floating-point exceptions are signalling: IEEE_UNDERFLOW_FLAG IEEE_DENORMAL
Note: The following floating-point exceptions are signalling: IEEE_DENORMAL
Note: The following floating-point exceptions are signalling: IEEE_DENORMAL
Note: The following floating-point exceptions are signalling: IEEE_DENORMAL
Note: The following floating-point exceptions are signalling: IEEE_INVALID_FLAG IEEE_DENORMAL
Note: The following floating-point exceptions are signalling: IEEE_DENORMAL
Note: The following floating-point exceptions are signalling: IEEE_DENORMAL
Note: The following floating-point exceptions are signalling: IEEE_DENORMAL
