
     Program PWSCF v.6.7MaX starts on 20Dec2022 at  8:30:55 

     This program is part of the open-source Quantum ESPRESSO suite
     for quantum simulation of materials; please cite
         "P. Giannozzi et al., J. Phys.:Condens. Matter 21 395502 (2009);
         "P. Giannozzi et al., J. Phys.:Condens. Matter 29 465901 (2017);
          URL http://www.quantum-espresso.org", 
     in publications or presentations arising from this work. More details at
     http://www.quantum-espresso.org/quote

     Parallel version (MPI), running on    12 processors

     MPI processes distributed on     1 nodes
     R & G space division:  proc/nbgrp/npool/nimage =      12
     Reading input from scale_2dab-02.in

     Current dimensions of program PWSCF are:
     Max number of different atomic species (ntypx) = 10
     Max number of k-points (npk) =  40000
     Max angular momentum in pseudopotentials (lmaxx) =  3
     Message from routine read_pp_mesh:
     mesh size missing, using the one in header
     file Fe.pbe-spn-kjpaw_psl.0.2.1.UPF: wavefunction(s)  3D renormalized
     file O.pbe-n-kjpaw_psl.0.1.UPF: wavefunction(s)  2P renormalized

     Subspace diagonalization in iterative solution of the eigenvalue problem:
     a serial algorithm will be used

     Message from routine setup:
     using ibrav=0 with symmetry is DISCOURAGED, use correct ibrav instead

     Parallelization info
     --------------------
     sticks:   dense  smooth     PW     G-vecs:    dense   smooth      PW
     Min        1600     592    159               104339    23526    3313
     Max        1602     593    160               104340    23528    3316
     Sum       19211    7107   1919              1252071   282325   39769



     bravais-lattice index     =            0
     lattice parameter (alat)  =      19.3373  a.u.
     unit-cell volume          =    2088.9460 (a.u.)^3
     number of atoms/cell      =           25
     number of atomic types    =            4
     number of electrons       =       189.00
     number of Kohn-Sham states=          114
     kinetic-energy cutoff     =     100.0000  Ry
     charge density cutoff     =    1080.0000  Ry
     scf convergence threshold =      2.0E-10
     mixing beta               =       0.4000
     number of iterations used =            8  plain     mixing
     Exchange-correlation= PBE
                           (   1   4   3   4   0   0   0)

     celldm(1)=  19.337306  celldm(2)=   0.000000  celldm(3)=   0.000000
     celldm(4)=   0.000000  celldm(5)=   0.000000  celldm(6)=   0.000000

     crystal axes: (cart. coord. in units of alat)
               a(1) = (   1.000000   0.000000   0.000000 )  
               a(2) = (   0.000000   0.597590   0.000000 )  
               a(3) = (   0.000000   0.000000   0.483433 )  

     reciprocal axes: (cart. coord. in units 2 pi/alat)
               b(1) = (  1.000000  0.000000  0.000000 )  
               b(2) = (  0.000000  1.673388  0.000000 )  
               b(3) = (  0.000000  0.000000  2.068540 )  


     PseudoPot. # 1 for Fe read from file:
     /opt/QEpot/SSSP_precision_pseudos/Fe.pbe-spn-kjpaw_psl.0.2.1.UPF
     MD5 check sum: e86618425769142926afa95317d90200
     Pseudo is Projector augmented-wave + core cor, Zval = 16.0
     Generated using "atomic" code by A. Dal Corso  v.5.0.99 svn rev. 10869
     Shape of augmentation charge: PSQ
     Using radial grid of 1191 points,  6 beta functions with: 
                l(1) =   0
                l(2) =   0
                l(3) =   1
                l(4) =   1
                l(5) =   2
                l(6) =   2
     Q(r) pseudized with 0 coefficients 


     PseudoPot. # 2 for Na read from file:
     /opt/QEpot/SSSP_precision_pseudos/Na_ONCV_PBE-1.0.oncvpsp.upf
     MD5 check sum: 24a298df0a6742ae313db96548fdb2a4
     Pseudo is Norm-conserving, Zval =  9.0
     Generated using ONCVPSP code by D. R. Hamann
     Using radial grid of 1992 points,  4 beta functions with: 
                l(1) =   0
                l(2) =   0
                l(3) =   1
                l(4) =   1

     PseudoPot. # 3 for O  read from file:
     /opt/QEpot/SSSP_precision_pseudos/O.pbe-n-kjpaw_psl.0.1.UPF
     MD5 check sum: 0234752ac141de4415c5fc33072bef88
     Pseudo is Projector augmented-wave + core cor, Zval =  6.0
     Generated using "atomic" code by A. Dal Corso  v.5.0.99 svn rev. 10869
     Shape of augmentation charge: BESSEL
     Using radial grid of 1095 points,  4 beta functions with: 
                l(1) =   0
                l(2) =   0
                l(3) =   1
                l(4) =   1
     Q(r) pseudized with 0 coefficients 


     PseudoPot. # 4 for P  read from file:
     /opt/QEpot/SSSP_precision_pseudos/P.pbe-n-rrkjus_psl.1.0.0.UPF
     MD5 check sum: 8b930f418f0a4573dca56cd030ffe088
     Pseudo is Ultrasoft + core correction, Zval =  5.0
     Generated using "atomic" code by A. Dal Corso  v.5.1
     Using radial grid of 1147 points,  6 beta functions with: 
                l(1) =   0
                l(2) =   0
                l(3) =   1
                l(4) =   1
                l(5) =   2
                l(6) =   2
     Q(r) pseudized with 0 coefficients 


     atomic species   valence    mass     pseudopotential
        Fe            16.00    55.84500     Fe( 1.00)
        Na             9.00    22.98977     Na( 1.00)
        O              6.00    15.99940     O ( 1.00)
        P              5.00    30.97376     P ( 1.00)

     Starting magnetic structure 
     atomic species   magnetization
        Fe           0.312
        Na           0.000
        O            0.000
        P            0.000

      2 Sym. Ops., with inversion, found


                                    s                        frac. trans.

      isym =  1     identity                                     

 cryst.   s( 1) = (     1          0          0      )
                  (     0          1          0      )
                  (     0          0          1      )

 cart.    s( 1) = (  1.0000000  0.0000000  0.0000000 )
                  (  0.0000000  1.0000000  0.0000000 )
                  (  0.0000000  0.0000000  1.0000000 )


      isym =  2     inversion                                    

 cryst.   s( 2) = (    -1          0          0      )
                  (     0         -1          0      )
                  (     0          0         -1      )

 cart.    s( 2) = ( -1.0000000  0.0000000  0.0000000 )
                  (  0.0000000 -1.0000000  0.0000000 )
                  (  0.0000000  0.0000000 -1.0000000 )


   Cartesian axes

     site n.     atom                  positions (alat units)
         1           Na  tau(   1) = (   0.5000030   0.2987962   0.2417178  )
         2           Fe  tau(   2) = (   0.2766340   0.4509067   0.4812776  )
         3           Fe  tau(   3) = (   0.2132450   0.1472796   0.2369081  )
         4           Fe  tau(   4) = (   0.7233720   0.1466862   0.0021580  )
         5           Fe  tau(   5) = (   0.7867600   0.4503127   0.2465275  )
         6           P   tau(   6) = (   0.1084050   0.4475052   0.2151744  )
         7           P   tau(   7) = (   0.3919000   0.1469754   0.4570049  )
         8           P   tau(   8) = (   0.8916010   0.1500877   0.2682616  )
         9           P   tau(   9) = (   0.6081070   0.4506175   0.0264288  )
        10           O   tau(  10) = (   0.1318760   0.4471825   0.3638020  )
        11           O   tau(  11) = (   0.3711480   0.1517090   0.1229669  )
        12           O   tau(  12) = (   0.8681290   0.1504104   0.1196332  )
        13           O   tau(  13) = (   0.6288580   0.4458840   0.3604701  )
        14           O   tau(  14) = (   0.4620270   0.4452021   0.0593544  )
        15           O   tau(  15) = (   0.0373160   0.1503453   0.2977220  )
        16           O   tau(  16) = (   0.5379780   0.1523908   0.4240812  )
        17           O   tau(  17) = (   0.9626900   0.4472477   0.1857136  )
        18           O   tau(  18) = (   0.1786770   0.5646908   0.1467856  )
        19           O   tau(  19) = (   0.3223210   0.0298072   0.3908805  )
        20           O   tau(  20) = (   0.8194080   0.2651781   0.3374786  )
        21           O   tau(  21) = (   0.6766380   0.3344526   0.0989558  )
        22           O   tau(  22) = (   0.8213290   0.0329027   0.3366500  )
        23           O   tau(  23) = (   0.6776850   0.5677863   0.0925551  )
        24           O   tau(  24) = (   0.1805980   0.3324148   0.1459570  )
        25           O   tau(  25) = (   0.3233680   0.2631404   0.3844803  )

   Crystallographic axes

     site n.     atom                  positions (cryst. coord.)
         1           Na  tau(   1) = (  0.5000030  0.5000020  0.5000030  )
         2           Fe  tau(   2) = (  0.2766340  0.7545420  0.9955420  )
         3           Fe  tau(   3) = (  0.2132450  0.2464560  0.4900540  )
         4           Fe  tau(   4) = (  0.7233720  0.2454630  0.0044640  )
         5           Fe  tau(   5) = (  0.7867600  0.7535480  0.5099520  )
         6           P   tau(   6) = (  0.1084050  0.7488500  0.4450970  )
         7           P   tau(   7) = (  0.3919000  0.2459470  0.9453330  )
         8           P   tau(   8) = (  0.8916010  0.2511550  0.5549100  )
         9           P   tau(   9) = (  0.6081070  0.7540580  0.0546690  )
        10           O   tau(  10) = (  0.1318760  0.7483100  0.7525390  )
        11           O   tau(  11) = (  0.3711480  0.2538680  0.2543620  )
        12           O   tau(  12) = (  0.8681290  0.2516950  0.2474660  )
        13           O   tau(  13) = (  0.6288580  0.7461370  0.7456470  )
        14           O   tau(  14) = (  0.4620270  0.7449960  0.1227770  )
        15           O   tau(  15) = (  0.0373160  0.2515860  0.6158500  )
        16           O   tau(  16) = (  0.5379780  0.2550090  0.8772290  )
        17           O   tau(  17) = (  0.9626900  0.7484190  0.3841560  )
        18           O   tau(  18) = (  0.1786770  0.9449470  0.3036320  )
        19           O   tau(  19) = (  0.3223210  0.0498790  0.8085520  )
        20           O   tau(  20) = (  0.8194080  0.4437460  0.6980880  )
        21           O   tau(  21) = (  0.6766380  0.5596690  0.2046940  )
        22           O   tau(  22) = (  0.8213290  0.0550590  0.6963740  )
        23           O   tau(  23) = (  0.6776850  0.9501270  0.1914540  )
        24           O   tau(  24) = (  0.1805980  0.5562590  0.3019180  )
        25           O   tau(  25) = (  0.3233680  0.4403360  0.7953130  )

     number of k points=   158  Marzari-Vanderbilt smearing, width (Ry)=  0.0073
                       cart. coord. in units 2pi/alat
        k(    1) = (   0.0000000   0.0000000   0.0000000), wk =   0.0031746
        k(    2) = (   0.0000000   0.0000000   0.2298378), wk =   0.0063492
        k(    3) = (   0.0000000   0.0000000   0.4596756), wk =   0.0063492
        k(    4) = (   0.0000000   0.0000000   0.6895134), wk =   0.0063492
        k(    5) = (   0.0000000   0.0000000   0.9193512), wk =   0.0063492
        k(    6) = (   0.0000000   0.2390555   0.0000000), wk =   0.0063492
        k(    7) = (   0.0000000   0.2390555   0.2298378), wk =   0.0063492
        k(    8) = (   0.0000000   0.2390555   0.4596756), wk =   0.0063492
        k(    9) = (   0.0000000   0.2390555   0.6895134), wk =   0.0063492
        k(   10) = (   0.0000000   0.2390555   0.9193512), wk =   0.0063492
        k(   11) = (   0.0000000   0.4781110   0.0000000), wk =   0.0063492
        k(   12) = (   0.0000000   0.4781110   0.2298378), wk =   0.0063492
        k(   13) = (   0.0000000   0.4781110   0.4596756), wk =   0.0063492
        k(   14) = (   0.0000000   0.4781110   0.6895134), wk =   0.0063492
        k(   15) = (   0.0000000   0.4781110   0.9193512), wk =   0.0063492
        k(   16) = (   0.0000000   0.7171664   0.0000000), wk =   0.0063492
        k(   17) = (   0.0000000   0.7171664   0.2298378), wk =   0.0063492
        k(   18) = (   0.0000000   0.7171664   0.4596756), wk =   0.0063492
        k(   19) = (   0.0000000   0.7171664   0.6895134), wk =   0.0063492
        k(   20) = (   0.0000000   0.7171664   0.9193512), wk =   0.0063492
        k(   21) = (   0.2000000   0.0000000   0.0000000), wk =   0.0063492
        k(   22) = (   0.2000000   0.0000000   0.2298378), wk =   0.0063492
        k(   23) = (   0.2000000   0.0000000   0.4596756), wk =   0.0063492
        k(   24) = (   0.2000000   0.0000000   0.6895134), wk =   0.0063492
        k(   25) = (   0.2000000   0.0000000   0.9193512), wk =   0.0063492
        k(   26) = (   0.2000000   0.2390555   0.0000000), wk =   0.0063492
        k(   27) = (   0.2000000   0.2390555   0.2298378), wk =   0.0063492
        k(   28) = (   0.2000000   0.2390555   0.4596756), wk =   0.0063492
        k(   29) = (   0.2000000   0.2390555   0.6895134), wk =   0.0063492
        k(   30) = (   0.2000000   0.2390555   0.9193512), wk =   0.0063492
        k(   31) = (   0.2000000   0.4781110   0.0000000), wk =   0.0063492
        k(   32) = (   0.2000000   0.4781110   0.2298378), wk =   0.0063492
        k(   33) = (   0.2000000   0.4781110   0.4596756), wk =   0.0063492
        k(   34) = (   0.2000000   0.4781110   0.6895134), wk =   0.0063492
        k(   35) = (   0.2000000   0.4781110   0.9193512), wk =   0.0063492
        k(   36) = (   0.2000000   0.7171664   0.0000000), wk =   0.0063492
        k(   37) = (   0.2000000   0.7171664   0.2298378), wk =   0.0063492
        k(   38) = (   0.2000000   0.7171664   0.4596756), wk =   0.0063492
        k(   39) = (   0.2000000   0.7171664   0.6895134), wk =   0.0063492
        k(   40) = (   0.2000000   0.7171664   0.9193512), wk =   0.0063492
        k(   41) = (   0.4000000   0.0000000   0.0000000), wk =   0.0063492
        k(   42) = (   0.4000000   0.0000000   0.2298378), wk =   0.0063492
        k(   43) = (   0.4000000   0.0000000   0.4596756), wk =   0.0063492
        k(   44) = (   0.4000000   0.0000000   0.6895134), wk =   0.0063492
        k(   45) = (   0.4000000   0.0000000   0.9193512), wk =   0.0063492
        k(   46) = (   0.4000000   0.2390555   0.0000000), wk =   0.0063492
        k(   47) = (   0.4000000   0.2390555   0.2298378), wk =   0.0063492
        k(   48) = (   0.4000000   0.2390555   0.4596756), wk =   0.0063492
        k(   49) = (   0.4000000   0.2390555   0.6895134), wk =   0.0063492
        k(   50) = (   0.4000000   0.2390555   0.9193512), wk =   0.0063492
        k(   51) = (   0.4000000   0.4781110   0.0000000), wk =   0.0063492
        k(   52) = (   0.4000000   0.4781110   0.2298378), wk =   0.0063492
        k(   53) = (   0.4000000   0.4781110   0.4596756), wk =   0.0063492
        k(   54) = (   0.4000000   0.4781110   0.6895134), wk =   0.0063492
        k(   55) = (   0.4000000   0.4781110   0.9193512), wk =   0.0063492
        k(   56) = (   0.4000000   0.7171664   0.0000000), wk =   0.0063492
        k(   57) = (   0.4000000   0.7171664   0.2298378), wk =   0.0063492
        k(   58) = (   0.4000000   0.7171664   0.4596756), wk =   0.0063492
        k(   59) = (   0.4000000   0.7171664   0.6895134), wk =   0.0063492
        k(   60) = (   0.4000000   0.7171664   0.9193512), wk =   0.0063492
        k(   61) = (   0.0000000   0.2390555  -0.2298378), wk =   0.0063492
        k(   62) = (   0.0000000   0.2390555  -0.4596756), wk =   0.0063492
        k(   63) = (   0.0000000   0.2390555  -0.6895134), wk =   0.0063492
        k(   64) = (   0.0000000   0.2390555  -0.9193512), wk =   0.0063492
        k(   65) = (   0.0000000   0.4781110  -0.2298378), wk =   0.0063492
        k(   66) = (   0.0000000   0.4781110  -0.4596756), wk =   0.0063492
        k(   67) = (   0.0000000   0.4781110  -0.6895134), wk =   0.0063492
        k(   68) = (   0.0000000   0.4781110  -0.9193512), wk =   0.0063492
        k(   69) = (   0.0000000   0.7171664  -0.2298378), wk =   0.0063492
        k(   70) = (   0.0000000   0.7171664  -0.4596756), wk =   0.0063492
        k(   71) = (   0.0000000   0.7171664  -0.6895134), wk =   0.0063492
        k(   72) = (   0.0000000   0.7171664  -0.9193512), wk =   0.0063492
        k(   73) = (   0.2000000   0.0000000  -0.2298378), wk =   0.0063492
        k(   74) = (   0.2000000   0.0000000  -0.4596756), wk =   0.0063492
        k(   75) = (   0.2000000   0.0000000  -0.6895134), wk =   0.0063492
        k(   76) = (   0.2000000   0.0000000  -0.9193512), wk =   0.0063492
        k(   77) = (  -0.2000000   0.2390555   0.0000000), wk =   0.0063492
        k(   78) = (  -0.2000000   0.2390555  -0.2298378), wk =   0.0063492
        k(   79) = (   0.2000000  -0.2390555  -0.2298378), wk =   0.0063492
        k(   80) = (  -0.2000000  -0.2390555   0.2298378), wk =   0.0063492
        k(   81) = (  -0.2000000   0.2390555  -0.4596756), wk =   0.0063492
        k(   82) = (   0.2000000  -0.2390555  -0.4596756), wk =   0.0063492
        k(   83) = (  -0.2000000  -0.2390555   0.4596756), wk =   0.0063492
        k(   84) = (  -0.2000000   0.2390555  -0.6895134), wk =   0.0063492
        k(   85) = (   0.2000000  -0.2390555  -0.6895134), wk =   0.0063492
        k(   86) = (  -0.2000000  -0.2390555   0.6895134), wk =   0.0063492
        k(   87) = (  -0.2000000   0.2390555  -0.9193512), wk =   0.0063492
        k(   88) = (   0.2000000  -0.2390555  -0.9193512), wk =   0.0063492
        k(   89) = (  -0.2000000  -0.2390555   0.9193512), wk =   0.0063492
        k(   90) = (  -0.2000000   0.4781110   0.0000000), wk =   0.0063492
        k(   91) = (  -0.2000000   0.4781110  -0.2298378), wk =   0.0063492
        k(   92) = (   0.2000000  -0.4781110  -0.2298378), wk =   0.0063492
        k(   93) = (  -0.2000000  -0.4781110   0.2298378), wk =   0.0063492
        k(   94) = (  -0.2000000   0.4781110  -0.4596756), wk =   0.0063492
        k(   95) = (   0.2000000  -0.4781110  -0.4596756), wk =   0.0063492
        k(   96) = (  -0.2000000  -0.4781110   0.4596756), wk =   0.0063492
        k(   97) = (  -0.2000000   0.4781110  -0.6895134), wk =   0.0063492
        k(   98) = (   0.2000000  -0.4781110  -0.6895134), wk =   0.0063492
        k(   99) = (  -0.2000000  -0.4781110   0.6895134), wk =   0.0063492
        k(  100) = (  -0.2000000   0.4781110  -0.9193512), wk =   0.0063492
        k(  101) = (   0.2000000  -0.4781110  -0.9193512), wk =   0.0063492
        k(  102) = (  -0.2000000  -0.4781110   0.9193512), wk =   0.0063492
        k(  103) = (  -0.2000000   0.7171664   0.0000000), wk =   0.0063492
        k(  104) = (  -0.2000000   0.7171664  -0.2298378), wk =   0.0063492
        k(  105) = (   0.2000000  -0.7171664  -0.2298378), wk =   0.0063492
        k(  106) = (  -0.2000000  -0.7171664   0.2298378), wk =   0.0063492
        k(  107) = (  -0.2000000   0.7171664  -0.4596756), wk =   0.0063492
        k(  108) = (   0.2000000  -0.7171664  -0.4596756), wk =   0.0063492
        k(  109) = (  -0.2000000  -0.7171664   0.4596756), wk =   0.0063492
        k(  110) = (  -0.2000000   0.7171664  -0.6895134), wk =   0.0063492
        k(  111) = (   0.2000000  -0.7171664  -0.6895134), wk =   0.0063492
        k(  112) = (  -0.2000000  -0.7171664   0.6895134), wk =   0.0063492
        k(  113) = (  -0.2000000   0.7171664  -0.9193512), wk =   0.0063492
        k(  114) = (   0.2000000  -0.7171664  -0.9193512), wk =   0.0063492
        k(  115) = (  -0.2000000  -0.7171664   0.9193512), wk =   0.0063492
        k(  116) = (   0.4000000   0.0000000  -0.2298378), wk =   0.0063492
        k(  117) = (   0.4000000   0.0000000  -0.4596756), wk =   0.0063492
        k(  118) = (   0.4000000   0.0000000  -0.6895134), wk =   0.0063492
        k(  119) = (   0.4000000   0.0000000  -0.9193512), wk =   0.0063492
        k(  120) = (  -0.4000000   0.2390555   0.0000000), wk =   0.0063492
        k(  121) = (  -0.4000000   0.2390555  -0.2298378), wk =   0.0063492
        k(  122) = (   0.4000000  -0.2390555  -0.2298378), wk =   0.0063492
        k(  123) = (  -0.4000000  -0.2390555   0.2298378), wk =   0.0063492
        k(  124) = (  -0.4000000   0.2390555  -0.4596756), wk =   0.0063492
        k(  125) = (   0.4000000  -0.2390555  -0.4596756), wk =   0.0063492
        k(  126) = (  -0.4000000  -0.2390555   0.4596756), wk =   0.0063492
        k(  127) = (  -0.4000000   0.2390555  -0.6895134), wk =   0.0063492
        k(  128) = (   0.4000000  -0.2390555  -0.6895134), wk =   0.0063492
        k(  129) = (  -0.4000000  -0.2390555   0.6895134), wk =   0.0063492
        k(  130) = (  -0.4000000   0.2390555  -0.9193512), wk =   0.0063492
        k(  131) = (   0.4000000  -0.2390555  -0.9193512), wk =   0.0063492
        k(  132) = (  -0.4000000  -0.2390555   0.9193512), wk =   0.0063492
        k(  133) = (  -0.4000000   0.4781110   0.0000000), wk =   0.0063492
        k(  134) = (  -0.4000000   0.4781110  -0.2298378), wk =   0.0063492
        k(  135) = (   0.4000000  -0.4781110  -0.2298378), wk =   0.0063492
        k(  136) = (  -0.4000000  -0.4781110   0.2298378), wk =   0.0063492
        k(  137) = (  -0.4000000   0.4781110  -0.4596756), wk =   0.0063492
        k(  138) = (   0.4000000  -0.4781110  -0.4596756), wk =   0.0063492
        k(  139) = (  -0.4000000  -0.4781110   0.4596756), wk =   0.0063492
        k(  140) = (  -0.4000000   0.4781110  -0.6895134), wk =   0.0063492
        k(  141) = (   0.4000000  -0.4781110  -0.6895134), wk =   0.0063492
        k(  142) = (  -0.4000000  -0.4781110   0.6895134), wk =   0.0063492
        k(  143) = (  -0.4000000   0.4781110  -0.9193512), wk =   0.0063492
        k(  144) = (   0.4000000  -0.4781110  -0.9193512), wk =   0.0063492
        k(  145) = (  -0.4000000  -0.4781110   0.9193512), wk =   0.0063492
        k(  146) = (  -0.4000000   0.7171664   0.0000000), wk =   0.0063492
        k(  147) = (  -0.4000000   0.7171664  -0.2298378), wk =   0.0063492
        k(  148) = (   0.4000000  -0.7171664  -0.2298378), wk =   0.0063492
        k(  149) = (  -0.4000000  -0.7171664   0.2298378), wk =   0.0063492
        k(  150) = (  -0.4000000   0.7171664  -0.4596756), wk =   0.0063492
        k(  151) = (   0.4000000  -0.7171664  -0.4596756), wk =   0.0063492
        k(  152) = (  -0.4000000  -0.7171664   0.4596756), wk =   0.0063492
        k(  153) = (  -0.4000000   0.7171664  -0.6895134), wk =   0.0063492
        k(  154) = (   0.4000000  -0.7171664  -0.6895134), wk =   0.0063492
        k(  155) = (  -0.4000000  -0.7171664   0.6895134), wk =   0.0063492
        k(  156) = (  -0.4000000   0.7171664  -0.9193512), wk =   0.0063492
        k(  157) = (   0.4000000  -0.7171664  -0.9193512), wk =   0.0063492
        k(  158) = (  -0.4000000  -0.7171664   0.9193512), wk =   0.0063492

                       cryst. coord.
        k(    1) = (   0.0000000   0.0000000   0.0000000), wk =   0.0031746
        k(    2) = (   0.0000000   0.0000000   0.1111111), wk =   0.0063492
        k(    3) = (   0.0000000   0.0000000   0.2222222), wk =   0.0063492
        k(    4) = (   0.0000000   0.0000000   0.3333333), wk =   0.0063492
        k(    5) = (   0.0000000   0.0000000   0.4444444), wk =   0.0063492
        k(    6) = (   0.0000000   0.1428571   0.0000000), wk =   0.0063492
        k(    7) = (   0.0000000   0.1428571   0.1111111), wk =   0.0063492
        k(    8) = (   0.0000000   0.1428571   0.2222222), wk =   0.0063492
        k(    9) = (   0.0000000   0.1428571   0.3333333), wk =   0.0063492
        k(   10) = (   0.0000000   0.1428571   0.4444444), wk =   0.0063492
        k(   11) = (   0.0000000   0.2857143   0.0000000), wk =   0.0063492
        k(   12) = (   0.0000000   0.2857143   0.1111111), wk =   0.0063492
        k(   13) = (   0.0000000   0.2857143   0.2222222), wk =   0.0063492
        k(   14) = (   0.0000000   0.2857143   0.3333333), wk =   0.0063492
        k(   15) = (   0.0000000   0.2857143   0.4444444), wk =   0.0063492
        k(   16) = (   0.0000000   0.4285714   0.0000000), wk =   0.0063492
        k(   17) = (   0.0000000   0.4285714   0.1111111), wk =   0.0063492
        k(   18) = (   0.0000000   0.4285714   0.2222222), wk =   0.0063492
        k(   19) = (   0.0000000   0.4285714   0.3333333), wk =   0.0063492
        k(   20) = (   0.0000000   0.4285714   0.4444444), wk =   0.0063492
        k(   21) = (   0.2000000   0.0000000   0.0000000), wk =   0.0063492
        k(   22) = (   0.2000000   0.0000000   0.1111111), wk =   0.0063492
        k(   23) = (   0.2000000   0.0000000   0.2222222), wk =   0.0063492
        k(   24) = (   0.2000000   0.0000000   0.3333333), wk =   0.0063492
        k(   25) = (   0.2000000   0.0000000   0.4444444), wk =   0.0063492
        k(   26) = (   0.2000000   0.1428571   0.0000000), wk =   0.0063492
        k(   27) = (   0.2000000   0.1428571   0.1111111), wk =   0.0063492
        k(   28) = (   0.2000000   0.1428571   0.2222222), wk =   0.0063492
        k(   29) = (   0.2000000   0.1428571   0.3333333), wk =   0.0063492
        k(   30) = (   0.2000000   0.1428571   0.4444444), wk =   0.0063492
        k(   31) = (   0.2000000   0.2857143   0.0000000), wk =   0.0063492
        k(   32) = (   0.2000000   0.2857143   0.1111111), wk =   0.0063492
        k(   33) = (   0.2000000   0.2857143   0.2222222), wk =   0.0063492
        k(   34) = (   0.2000000   0.2857143   0.3333333), wk =   0.0063492
        k(   35) = (   0.2000000   0.2857143   0.4444444), wk =   0.0063492
        k(   36) = (   0.2000000   0.4285714   0.0000000), wk =   0.0063492
        k(   37) = (   0.2000000   0.4285714   0.1111111), wk =   0.0063492
        k(   38) = (   0.2000000   0.4285714   0.2222222), wk =   0.0063492
        k(   39) = (   0.2000000   0.4285714   0.3333333), wk =   0.0063492
        k(   40) = (   0.2000000   0.4285714   0.4444444), wk =   0.0063492
        k(   41) = (   0.4000000   0.0000000   0.0000000), wk =   0.0063492
        k(   42) = (   0.4000000   0.0000000   0.1111111), wk =   0.0063492
        k(   43) = (   0.4000000   0.0000000   0.2222222), wk =   0.0063492
        k(   44) = (   0.4000000   0.0000000   0.3333333), wk =   0.0063492
        k(   45) = (   0.4000000   0.0000000   0.4444444), wk =   0.0063492
        k(   46) = (   0.4000000   0.1428571   0.0000000), wk =   0.0063492
        k(   47) = (   0.4000000   0.1428571   0.1111111), wk =   0.0063492
        k(   48) = (   0.4000000   0.1428571   0.2222222), wk =   0.0063492
        k(   49) = (   0.4000000   0.1428571   0.3333333), wk =   0.0063492
        k(   50) = (   0.4000000   0.1428571   0.4444444), wk =   0.0063492
        k(   51) = (   0.4000000   0.2857143   0.0000000), wk =   0.0063492
        k(   52) = (   0.4000000   0.2857143   0.1111111), wk =   0.0063492
        k(   53) = (   0.4000000   0.2857143   0.2222222), wk =   0.0063492
        k(   54) = (   0.4000000   0.2857143   0.3333333), wk =   0.0063492
        k(   55) = (   0.4000000   0.2857143   0.4444444), wk =   0.0063492
        k(   56) = (   0.4000000   0.4285714   0.0000000), wk =   0.0063492
        k(   57) = (   0.4000000   0.4285714   0.1111111), wk =   0.0063492
        k(   58) = (   0.4000000   0.4285714   0.2222222), wk =   0.0063492
        k(   59) = (   0.4000000   0.4285714   0.3333333), wk =   0.0063492
        k(   60) = (   0.4000000   0.4285714   0.4444444), wk =   0.0063492
        k(   61) = (   0.0000000   0.1428571  -0.1111111), wk =   0.0063492
        k(   62) = (   0.0000000   0.1428571  -0.2222222), wk =   0.0063492
        k(   63) = (   0.0000000   0.1428571  -0.3333333), wk =   0.0063492
        k(   64) = (   0.0000000   0.1428571  -0.4444444), wk =   0.0063492
        k(   65) = (   0.0000000   0.2857143  -0.1111111), wk =   0.0063492
        k(   66) = (   0.0000000   0.2857143  -0.2222222), wk =   0.0063492
        k(   67) = (   0.0000000   0.2857143  -0.3333333), wk =   0.0063492
        k(   68) = (   0.0000000   0.2857143  -0.4444444), wk =   0.0063492
        k(   69) = (   0.0000000   0.4285714  -0.1111111), wk =   0.0063492
        k(   70) = (   0.0000000   0.4285714  -0.2222222), wk =   0.0063492
        k(   71) = (   0.0000000   0.4285714  -0.3333333), wk =   0.0063492
        k(   72) = (   0.0000000   0.4285714  -0.4444444), wk =   0.0063492
        k(   73) = (   0.2000000   0.0000000  -0.1111111), wk =   0.0063492
        k(   74) = (   0.2000000   0.0000000  -0.2222222), wk =   0.0063492
        k(   75) = (   0.2000000   0.0000000  -0.3333333), wk =   0.0063492
        k(   76) = (   0.2000000   0.0000000  -0.4444444), wk =   0.0063492
        k(   77) = (  -0.2000000   0.1428571   0.0000000), wk =   0.0063492
        k(   78) = (  -0.2000000   0.1428571  -0.1111111), wk =   0.0063492
        k(   79) = (   0.2000000  -0.1428571  -0.1111111), wk =   0.0063492
        k(   80) = (  -0.2000000  -0.1428571   0.1111111), wk =   0.0063492
        k(   81) = (  -0.2000000   0.1428571  -0.2222222), wk =   0.0063492
        k(   82) = (   0.2000000  -0.1428571  -0.2222222), wk =   0.0063492
        k(   83) = (  -0.2000000  -0.1428571   0.2222222), wk =   0.0063492
        k(   84) = (  -0.2000000   0.1428571  -0.3333333), wk =   0.0063492
        k(   85) = (   0.2000000  -0.1428571  -0.3333333), wk =   0.0063492
        k(   86) = (  -0.2000000  -0.1428571   0.3333333), wk =   0.0063492
        k(   87) = (  -0.2000000   0.1428571  -0.4444444), wk =   0.0063492
        k(   88) = (   0.2000000  -0.1428571  -0.4444444), wk =   0.0063492
        k(   89) = (  -0.2000000  -0.1428571   0.4444444), wk =   0.0063492
        k(   90) = (  -0.2000000   0.2857143   0.0000000), wk =   0.0063492
        k(   91) = (  -0.2000000   0.2857143  -0.1111111), wk =   0.0063492
        k(   92) = (   0.2000000  -0.2857143  -0.1111111), wk =   0.0063492
        k(   93) = (  -0.2000000  -0.2857143   0.1111111), wk =   0.0063492
        k(   94) = (  -0.2000000   0.2857143  -0.2222222), wk =   0.0063492
        k(   95) = (   0.2000000  -0.2857143  -0.2222222), wk =   0.0063492
        k(   96) = (  -0.2000000  -0.2857143   0.2222222), wk =   0.0063492
        k(   97) = (  -0.2000000   0.2857143  -0.3333333), wk =   0.0063492
        k(   98) = (   0.2000000  -0.2857143  -0.3333333), wk =   0.0063492
        k(   99) = (  -0.2000000  -0.2857143   0.3333333), wk =   0.0063492
        k(  100) = (  -0.2000000   0.2857143  -0.4444444), wk =   0.0063492
        k(  101) = (   0.2000000  -0.2857143  -0.4444444), wk =   0.0063492
        k(  102) = (  -0.2000000  -0.2857143   0.4444444), wk =   0.0063492
        k(  103) = (  -0.2000000   0.4285714   0.0000000), wk =   0.0063492
        k(  104) = (  -0.2000000   0.4285714  -0.1111111), wk =   0.0063492
        k(  105) = (   0.2000000  -0.4285714  -0.1111111), wk =   0.0063492
        k(  106) = (  -0.2000000  -0.4285714   0.1111111), wk =   0.0063492
        k(  107) = (  -0.2000000   0.4285714  -0.2222222), wk =   0.0063492
        k(  108) = (   0.2000000  -0.4285714  -0.2222222), wk =   0.0063492
        k(  109) = (  -0.2000000  -0.4285714   0.2222222), wk =   0.0063492
        k(  110) = (  -0.2000000   0.4285714  -0.3333333), wk =   0.0063492
        k(  111) = (   0.2000000  -0.4285714  -0.3333333), wk =   0.0063492
        k(  112) = (  -0.2000000  -0.4285714   0.3333333), wk =   0.0063492
        k(  113) = (  -0.2000000   0.4285714  -0.4444444), wk =   0.0063492
        k(  114) = (   0.2000000  -0.4285714  -0.4444444), wk =   0.0063492
        k(  115) = (  -0.2000000  -0.4285714   0.4444444), wk =   0.0063492
        k(  116) = (   0.4000000   0.0000000  -0.1111111), wk =   0.0063492
        k(  117) = (   0.4000000   0.0000000  -0.2222222), wk =   0.0063492
        k(  118) = (   0.4000000   0.0000000  -0.3333333), wk =   0.0063492
        k(  119) = (   0.4000000   0.0000000  -0.4444444), wk =   0.0063492
        k(  120) = (  -0.4000000   0.1428571   0.0000000), wk =   0.0063492
        k(  121) = (  -0.4000000   0.1428571  -0.1111111), wk =   0.0063492
        k(  122) = (   0.4000000  -0.1428571  -0.1111111), wk =   0.0063492
        k(  123) = (  -0.4000000  -0.1428571   0.1111111), wk =   0.0063492
        k(  124) = (  -0.4000000   0.1428571  -0.2222222), wk =   0.0063492
        k(  125) = (   0.4000000  -0.1428571  -0.2222222), wk =   0.0063492
        k(  126) = (  -0.4000000  -0.1428571   0.2222222), wk =   0.0063492
        k(  127) = (  -0.4000000   0.1428571  -0.3333333), wk =   0.0063492
        k(  128) = (   0.4000000  -0.1428571  -0.3333333), wk =   0.0063492
        k(  129) = (  -0.4000000  -0.1428571   0.3333333), wk =   0.0063492
        k(  130) = (  -0.4000000   0.1428571  -0.4444444), wk =   0.0063492
        k(  131) = (   0.4000000  -0.1428571  -0.4444444), wk =   0.0063492
        k(  132) = (  -0.4000000  -0.1428571   0.4444444), wk =   0.0063492
        k(  133) = (  -0.4000000   0.2857143   0.0000000), wk =   0.0063492
        k(  134) = (  -0.4000000   0.2857143  -0.1111111), wk =   0.0063492
        k(  135) = (   0.4000000  -0.2857143  -0.1111111), wk =   0.0063492
        k(  136) = (  -0.4000000  -0.2857143   0.1111111), wk =   0.0063492
        k(  137) = (  -0.4000000   0.2857143  -0.2222222), wk =   0.0063492
        k(  138) = (   0.4000000  -0.2857143  -0.2222222), wk =   0.0063492
        k(  139) = (  -0.4000000  -0.2857143   0.2222222), wk =   0.0063492
        k(  140) = (  -0.4000000   0.2857143  -0.3333333), wk =   0.0063492
        k(  141) = (   0.4000000  -0.2857143  -0.3333333), wk =   0.0063492
        k(  142) = (  -0.4000000  -0.2857143   0.3333333), wk =   0.0063492
        k(  143) = (  -0.4000000   0.2857143  -0.4444444), wk =   0.0063492
        k(  144) = (   0.4000000  -0.2857143  -0.4444444), wk =   0.0063492
        k(  145) = (  -0.4000000  -0.2857143   0.4444444), wk =   0.0063492
        k(  146) = (  -0.4000000   0.4285714   0.0000000), wk =   0.0063492
        k(  147) = (  -0.4000000   0.4285714  -0.1111111), wk =   0.0063492
        k(  148) = (   0.4000000  -0.4285714  -0.1111111), wk =   0.0063492
        k(  149) = (  -0.4000000  -0.4285714   0.1111111), wk =   0.0063492
        k(  150) = (  -0.4000000   0.4285714  -0.2222222), wk =   0.0063492
        k(  151) = (   0.4000000  -0.4285714  -0.2222222), wk =   0.0063492
        k(  152) = (  -0.4000000  -0.4285714   0.2222222), wk =   0.0063492
        k(  153) = (  -0.4000000   0.4285714  -0.3333333), wk =   0.0063492
        k(  154) = (   0.4000000  -0.4285714  -0.3333333), wk =   0.0063492
        k(  155) = (  -0.4000000  -0.4285714   0.3333333), wk =   0.0063492
        k(  156) = (  -0.4000000   0.4285714  -0.4444444), wk =   0.0063492
        k(  157) = (   0.4000000  -0.4285714  -0.4444444), wk =   0.0063492
        k(  158) = (  -0.4000000  -0.4285714   0.4444444), wk =   0.0063492

     Dense  grid:  1252071 G-vectors     FFT dimensions: ( 216, 125, 100)

     Smooth grid:   282325 G-vectors     FFT dimensions: ( 125,  75,  60)

     Dynamical RAM for                 wfc:       5.11 MB

     Dynamical RAM for     wfc (w. buffer):    1620.63 MB

     Dynamical RAM for           str. fact:       6.37 MB

     Dynamical RAM for           local pot:       0.00 MB

     Dynamical RAM for          nlocal pot:      12.56 MB

     Dynamical RAM for                qrad:      10.54 MB

     Dynamical RAM for          rho,v,vnew:      20.68 MB

     Dynamical RAM for               rhoin:       6.89 MB

     Dynamical RAM for            rho*nmix:      50.95 MB

     Dynamical RAM for           G-vectors:       6.15 MB

     Dynamical RAM for          h,s,v(r/c):       2.38 MB

     Dynamical RAM for          <psi|beta>:       0.49 MB

     Dynamical RAM for                 psi:      10.22 MB

     Dynamical RAM for                hpsi:      10.22 MB

     Dynamical RAM for                spsi:      10.22 MB

     Dynamical RAM for      wfcinit/wfcrot:      12.72 MB

     Dynamical RAM for           addusdens:     323.20 MB

     Dynamical RAM for          addusforce:     371.09 MB

     Dynamical RAM for         addusstress:     322.40 MB

     Estimated static dynamical RAM per process >       1.71 GB

     Estimated max dynamical RAM per process >       2.08 GB

     Estimated total dynamical RAM >      24.90 GB

     Check: negative core charge=   -0.000003
     Generating pointlists ...
     new r_m :   0.0768 (alat units)  1.4850 (a.u.) for type    1
     new r_m :   0.0944 (alat units)  1.8249 (a.u.) for type    2
     new r_m :   0.0613 (alat units)  1.1858 (a.u.) for type    3
     new r_m :   0.0613 (alat units)  1.1858 (a.u.) for type    4

     Initial potential from superposition of free atoms

     starting charge  188.99132, renormalised to  189.00000
     Starting wfcs are  137 randomized atomic wfcs
     Checking if some PAW data can be deallocated... 
       PAW data deallocated on   10 nodes for type:  1
       PAW data deallocated on    4 nodes for type:  3

     total cpu time spent up to now is     2513.4 secs

     Self-consistent Calculation

     iteration #  1     ecut=   100.00 Ry     beta= 0.40
     Davidson diagonalization with overlap
     ethr =  1.00E-02,  avg # of iterations =  3.2

     negative rho (up, down):  0.000E+00 8.370E-05

     total cpu time spent up to now is     7824.2 secs

     total energy              =   -2124.12239321 Ry
     estimated scf accuracy    <       6.62359021 Ry

     total magnetization       =    19.00 Bohr mag/cell
     absolute magnetization    =    19.00 Bohr mag/cell

     iteration #  2     ecut=   100.00 Ry     beta= 0.40
     Davidson diagonalization with overlap
     ethr =  3.50E-03,  avg # of iterations =  2.0

     negative rho (up, down):  0.000E+00 5.301E-05

     total cpu time spent up to now is    10267.1 secs

     total energy              =   -2123.62223789 Ry
     estimated scf accuracy    <      11.19656963 Ry

     total magnetization       =    12.65 Bohr mag/cell
     absolute magnetization    =    12.69 Bohr mag/cell

     iteration #  3     ecut=   100.00 Ry     beta= 0.40
     Davidson diagonalization with overlap
     ethr =  3.50E-03,  avg # of iterations =  2.0

     negative rho (up, down):  0.000E+00 1.676E-04

     total cpu time spent up to now is    11080.4 secs

     total energy              =   -2126.11226908 Ry
     estimated scf accuracy    <       1.74746503 Ry

     total magnetization       =    19.00 Bohr mag/cell
     absolute magnetization    =    19.00 Bohr mag/cell

     iteration #  4     ecut=   100.00 Ry     beta= 0.40
     Davidson diagonalization with overlap
     ethr =  9.25E-04,  avg # of iterations =  2.1

     negative rho (up, down):  0.000E+00 2.219E-04

     total cpu time spent up to now is    12479.4 secs

     total energy              =   -2126.13308280 Ry
     estimated scf accuracy    <       0.93562886 Ry

     total magnetization       =    19.00 Bohr mag/cell
     absolute magnetization    =    19.00 Bohr mag/cell

     iteration #  5     ecut=   100.00 Ry     beta= 0.40
     Davidson diagonalization with overlap
     ethr =  4.95E-04,  avg # of iterations =  1.9

     negative rho (up, down):  0.000E+00 6.773E-04

     total cpu time spent up to now is    16988.0 secs

     total energy              =   -2126.04929506 Ry
     estimated scf accuracy    <       0.51641413 Ry

     total magnetization       =    19.00 Bohr mag/cell
     absolute magnetization    =    19.00 Bohr mag/cell

     iteration #  6     ecut=   100.00 Ry     beta= 0.40
     Davidson diagonalization with overlap
     c_bands:  1 eigenvalues not converged
     c_bands:  1 eigenvalues not converged
     ethr =  2.73E-04,  avg # of iterations =  7.0

     negative rho (up, down):  0.000E+00 8.083E-04

     total cpu time spent up to now is    23331.3 secs

     total energy              =   -2126.13523991 Ry
     estimated scf accuracy    <       0.19741475 Ry

     total magnetization       =    19.00 Bohr mag/cell
     absolute magnetization    =    19.01 Bohr mag/cell

     iteration #  7     ecut=   100.00 Ry     beta= 0.40
     Davidson diagonalization with overlap
     c_bands:  1 eigenvalues not converged
     c_bands:  1 eigenvalues not converged
     c_bands:  1 eigenvalues not converged
     c_bands:  1 eigenvalues not converged
     c_bands:  3 eigenvalues not converged
     c_bands:  1 eigenvalues not converged
     c_bands:  1 eigenvalues not converged
     ethr =  1.04E-04,  avg # of iterations =  8.0

     negative rho (up, down):  0.000E+00 9.630E-04

     total cpu time spent up to now is    29567.4 secs

     total energy              =   -2126.14581019 Ry
     estimated scf accuracy    <       0.02617450 Ry

     total magnetization       =    19.00 Bohr mag/cell
     absolute magnetization    =    19.02 Bohr mag/cell

     iteration #  8     ecut=   100.00 Ry     beta= 0.40
     Davidson diagonalization with overlap
     c_bands:  1 eigenvalues not converged
     c_bands:  1 eigenvalues not converged
     c_bands:  1 eigenvalues not converged
     c_bands:  1 eigenvalues not converged
     c_bands:  1 eigenvalues not converged
     c_bands:  1 eigenvalues not converged
     c_bands:  1 eigenvalues not converged
     c_bands:  1 eigenvalues not converged
     c_bands:  1 eigenvalues not converged
     c_bands:  2 eigenvalues not converged
     c_bands:  1 eigenvalues not converged
     c_bands:  2 eigenvalues not converged
     c_bands:  1 eigenvalues not converged
     c_bands:  1 eigenvalues not converged
     c_bands:  1 eigenvalues not converged
     c_bands:  1 eigenvalues not converged
     c_bands:  1 eigenvalues not converged
     c_bands:  1 eigenvalues not converged
     c_bands:  1 eigenvalues not converged
     c_bands:  1 eigenvalues not converged
     c_bands:  1 eigenvalues not converged
     c_bands:  1 eigenvalues not converged
     c_bands:  1 eigenvalues not converged
     c_bands:  1 eigenvalues not converged
     ethr =  1.38E-05,  avg # of iterations = 12.2

     negative rho (up, down):  0.000E+00 9.773E-04

     total cpu time spent up to now is    38124.9 secs

     total energy              =   -2126.15320090 Ry
     estimated scf accuracy    <       0.02373597 Ry

     total magnetization       =    19.00 Bohr mag/cell
     absolute magnetization    =    19.03 Bohr mag/cell

     iteration #  9     ecut=   100.00 Ry     beta= 0.40
     Davidson diagonalization with overlap
     ethr =  1.26E-05,  avg # of iterations =  1.1

     negative rho (up, down):  0.000E+00 9.684E-04

     total cpu time spent up to now is    43294.0 secs

     total energy              =   -2126.15421028 Ry
     estimated scf accuracy    <       0.00048122 Ry

     total magnetization       =    19.00 Bohr mag/cell
     absolute magnetization    =    19.04 Bohr mag/cell

     iteration # 10     ecut=   100.00 Ry     beta= 0.40
     Davidson diagonalization with overlap
     c_bands:  1 eigenvalues not converged
     c_bands:  1 eigenvalues not converged
     c_bands:  1 eigenvalues not converged
     c_bands:  1 eigenvalues not converged
     c_bands:  1 eigenvalues not converged
     c_bands:  1 eigenvalues not converged
     c_bands:  1 eigenvalues not converged
     c_bands:  1 eigenvalues not converged
     c_bands:  1 eigenvalues not converged
     c_bands:  1 eigenvalues not converged
     c_bands:  1 eigenvalues not converged
     ethr =  2.55E-07,  avg # of iterations =  8.6

     negative rho (up, down):  0.000E+00 9.532E-04

     total cpu time spent up to now is    53765.7 secs

     total energy              =   -2126.15470490 Ry
     estimated scf accuracy    <       0.00128980 Ry

     total magnetization       =    19.00 Bohr mag/cell
     absolute magnetization    =    19.04 Bohr mag/cell

     iteration # 11     ecut=   100.00 Ry     beta= 0.40
     Davidson diagonalization with overlap
     c_bands:  1 eigenvalues not converged
     ethr =  2.55E-07,  avg # of iterations =  1.2

     negative rho (up, down):  0.000E+00 9.501E-04

     total cpu time spent up to now is    58919.2 secs

     total energy              =   -2126.15476938 Ry
     estimated scf accuracy    <       0.00006435 Ry

     total magnetization       =    19.00 Bohr mag/cell
     absolute magnetization    =    19.04 Bohr mag/cell

     iteration # 12     ecut=   100.00 Ry     beta= 0.40
     Davidson diagonalization with overlap
     ethr =  3.40E-08,  avg # of iterations =  2.3

     negative rho (up, down):  0.000E+00 9.503E-04

     total cpu time spent up to now is    64682.2 secs

     total energy              =   -2126.15478575 Ry
     estimated scf accuracy    <       0.00005047 Ry

     total magnetization       =    19.00 Bohr mag/cell
     absolute magnetization    =    19.04 Bohr mag/cell

     iteration # 13     ecut=   100.00 Ry     beta= 0.40
     Davidson diagonalization with overlap
     ethr =  2.67E-08,  avg # of iterations =  1.4

     negative rho (up, down):  0.000E+00 9.502E-04

     total cpu time spent up to now is    69906.6 secs

     total energy              =   -2126.15479377 Ry
     estimated scf accuracy    <       0.00000646 Ry

     total magnetization       =    19.00 Bohr mag/cell
     absolute magnetization    =    19.04 Bohr mag/cell

     iteration # 14     ecut=   100.00 Ry     beta= 0.40
     Davidson diagonalization with overlap
     ethr =  3.42E-09,  avg # of iterations =  3.5

     negative rho (up, down):  0.000E+00 9.519E-04

     total cpu time spent up to now is    77014.3 secs

     total energy              =   -2126.15479803 Ry
     estimated scf accuracy    <       0.00000422 Ry

     total magnetization       =    19.00 Bohr mag/cell
     absolute magnetization    =    19.04 Bohr mag/cell

     iteration # 15     ecut=   100.00 Ry     beta= 0.40
     Davidson diagonalization with overlap
     ethr =  2.23E-09,  avg # of iterations =  2.0

     negative rho (up, down):  0.000E+00 9.524E-04

     total cpu time spent up to now is    82852.3 secs

     total energy              =   -2126.15479981 Ry
     estimated scf accuracy    <       0.00000078 Ry

     total magnetization       =    19.00 Bohr mag/cell
     absolute magnetization    =    19.04 Bohr mag/cell

     iteration # 16     ecut=   100.00 Ry     beta= 0.40
     Davidson diagonalization with overlap
     ethr =  4.12E-10,  avg # of iterations =  3.7

     negative rho (up, down):  0.000E+00 9.524E-04

     total cpu time spent up to now is    89575.3 secs

     total energy              =   -2126.15480017 Ry
     estimated scf accuracy    <       0.00000020 Ry

     total magnetization       =    19.00 Bohr mag/cell
     absolute magnetization    =    19.04 Bohr mag/cell

     iteration # 17     ecut=   100.00 Ry     beta= 0.40
     Davidson diagonalization with overlap
     ethr =  1.06E-10,  avg # of iterations =  2.8

     negative rho (up, down):  0.000E+00 9.523E-04

     total cpu time spent up to now is    95440.4 secs

     total energy              =   -2126.15480027 Ry
     estimated scf accuracy    <       0.00000013 Ry

     total magnetization       =    19.00 Bohr mag/cell
     absolute magnetization    =    19.04 Bohr mag/cell

     iteration # 18     ecut=   100.00 Ry     beta= 0.40
     Davidson diagonalization with overlap
     ethr =  6.84E-11,  avg # of iterations =  1.3

     negative rho (up, down):  0.000E+00 9.523E-04

     total cpu time spent up to now is   100594.2 secs

     total energy              =   -2126.15480030 Ry
     estimated scf accuracy    <       0.00000002 Ry

     total magnetization       =    19.00 Bohr mag/cell
     absolute magnetization    =    19.04 Bohr mag/cell

     iteration # 19     ecut=   100.00 Ry     beta= 0.40
     Davidson diagonalization with overlap
     ethr =  9.79E-12,  avg # of iterations =  4.2

     negative rho (up, down):  0.000E+00 9.523E-04

     total cpu time spent up to now is   107631.8 secs

     total energy              =   -2126.15480031 Ry
     estimated scf accuracy    <          8.6E-09 Ry

     total magnetization       =    19.00 Bohr mag/cell
     absolute magnetization    =    19.04 Bohr mag/cell

     iteration # 20     ecut=   100.00 Ry     beta= 0.40
     Davidson diagonalization with overlap
     ethr =  4.52E-12,  avg # of iterations =  2.1

     negative rho (up, down):  0.000E+00 9.522E-04

     total cpu time spent up to now is   113183.8 secs

     total energy              =   -2126.15480032 Ry
     estimated scf accuracy    <       0.00000001 Ry

     total magnetization       =    19.00 Bohr mag/cell
     absolute magnetization    =    19.04 Bohr mag/cell

     iteration # 21     ecut=   100.00 Ry     beta= 0.40
     Davidson diagonalization with overlap
     ethr =  4.52E-12,  avg # of iterations =  2.0

     negative rho (up, down):  0.000E+00 9.523E-04

     total cpu time spent up to now is   118680.8 secs

     total energy              =   -2126.15480032 Ry
     estimated scf accuracy    <          1.6E-09 Ry

     total magnetization       =    19.00 Bohr mag/cell
     absolute magnetization    =    19.04 Bohr mag/cell

     iteration # 22     ecut=   100.00 Ry     beta= 0.40
     Davidson diagonalization with overlap
     ethr =  8.64E-13,  avg # of iterations =  2.7

     negative rho (up, down):  0.000E+00 9.523E-04

     total cpu time spent up to now is   124671.2 secs

     total energy              =   -2126.15480032 Ry
     estimated scf accuracy    <          3.4E-10 Ry

     total magnetization       =    19.00 Bohr mag/cell
     absolute magnetization    =    19.04 Bohr mag/cell

     iteration # 23     ecut=   100.00 Ry     beta= 0.40
     Davidson diagonalization with overlap
     ethr =  1.81E-13,  avg # of iterations =  4.0

     negative rho (up, down):  0.000E+00 9.523E-04

     Magnetic moment per site:
     atom:    1    charge:    7.9698    magn:    0.0008    constr:    0.0000
     atom:    2    charge:   12.8292    magn:    3.6371    constr:    0.0000
     atom:    3    charge:   12.8319    magn:    3.6237    constr:    0.0000
     atom:    4    charge:   12.8292    magn:    3.6371    constr:    0.0000
     atom:    5    charge:   12.8319    magn:    3.6237    constr:    0.0000
     atom:    6    charge:    0.8290    magn:    0.0112    constr:    0.0000
     atom:    7    charge:    0.8291    magn:    0.0086    constr:    0.0000
     atom:    8    charge:    0.8291    magn:    0.0112    constr:    0.0000
     atom:    9    charge:    0.8291    magn:    0.0086    constr:    0.0000
     atom:   10    charge:    4.2121    magn:    0.1340    constr:    0.0000
     atom:   11    charge:    4.2151    magn:    0.0859    constr:    0.0000
     atom:   12    charge:    4.2122    magn:    0.1340    constr:    0.0000
     atom:   13    charge:    4.2151    magn:    0.0859    constr:    0.0000
     atom:   14    charge:    4.2200    magn:    0.0921    constr:    0.0000
     atom:   15    charge:    4.2254    magn:    0.1346    constr:    0.0000
     atom:   16    charge:    4.2200    magn:    0.0921    constr:    0.0000
     atom:   17    charge:    4.2255    magn:    0.1346    constr:    0.0000
     atom:   18    charge:    4.1997    magn:    0.1528    constr:    0.0000
     atom:   19    charge:    4.2030    magn:    0.1323    constr:    0.0000
     atom:   20    charge:    4.1983    magn:    0.1446    constr:    0.0000
     atom:   21    charge:    4.2002    magn:    0.1209    constr:    0.0000
     atom:   22    charge:    4.1998    magn:    0.1528    constr:    0.0000
     atom:   23    charge:    4.2030    magn:    0.1323    constr:    0.0000
     atom:   24    charge:    4.1983    magn:    0.1446    constr:    0.0000
     atom:   25    charge:    4.2002    magn:    0.1209    constr:    0.0000

     total cpu time spent up to now is   131789.6 secs

     End of self-consistent calculation

 ------ SPIN UP ------------


          k = 0.0000 0.0000 0.0000 ( 35257 PWs)   bands (ev):

   -84.7296 -84.7291 -84.6908 -84.6900 -50.8773 -50.8765 -50.8599 -50.8594
   -50.7026 -50.7020 -50.6070 -50.6063 -50.5944 -50.5934 -50.5869 -50.5861
   -44.2475 -16.3860 -16.2449 -16.2247 -16.0819 -15.8251 -15.7659 -15.5929
   -13.5941 -13.5106 -13.4447 -13.4334 -13.2881 -13.2376 -13.2336 -13.2078
   -13.1403 -13.1125 -13.0472 -13.0206  -3.8361  -3.3418  -3.2498  -2.8200
    -2.0543  -1.6828  -1.5910  -1.4646  -1.3213  -1.1372  -1.0933  -1.0187
    -0.8665  -0.7402  -0.5107  -0.1979  -0.0435  -0.0411   0.5096   0.5860
     0.6285   0.7553   0.8751   0.9177   1.0351   1.1024   1.2661   1.3638
     1.4787   1.6877   1.6974   1.7234   1.9039   1.9080   1.9696   2.0034
     2.1271   2.3667   2.4104   2.5569   2.5700   2.6123   2.7223   2.8139
     2.8878   3.0160   3.1763   3.1893   3.2231   3.3595   3.5039   3.5282
     3.5950   3.7036   3.7494   3.7756   3.9331   4.0370   4.0472   4.2437
     4.2485   4.4779   4.5051   4.6675   4.8780   4.9823   5.2209   5.3016
     9.7051  11.7628  12.1579  12.5959  12.7256  13.2277  13.7710  13.9580
    14.0479  14.0809

     occupation numbers 
     1.0000   1.0000   1.0000   1.0000   1.0000   1.0000   1.0000   1.0000
     1.0000   1.0000   1.0000   1.0000   1.0000   1.0000   1.0000   1.0000
     1.0000   1.0000   1.0000   1.0000   1.0000   1.0000   1.0000   1.0000
     1.0000   1.0000   1.0000   1.0000   1.0000   1.0000   1.0000   1.0000
     1.0000   1.0000   1.0000   1.0000   1.0000   1.0000   1.0000   1.0000
     1.0000   1.0000   1.0000   1.0000   1.0000   1.0000   1.0000   1.0000
     1.0000   1.0000   1.0000   1.0000   1.0000   1.0000   1.0000   1.0000
     1.0000   1.0000   1.0000   1.0000   1.0000   1.0000   1.0000   1.0000
     1.0000   1.0000   1.0000   1.0000   1.0000   1.0000   1.0000   1.0000
     1.0000   1.0000   1.0000   1.0000   1.0000   1.0000   1.0000   1.0000
     1.0000   1.0000   1.0000   1.0000   1.0000   1.0000   1.0000   1.0000
     1.0000   1.0000   1.0000   1.0000   1.0000   1.0000   1.0000   1.0000
     1.0000   1.0000   1.0000   1.0000   1.0000   1.0000   1.0000   1.0000
     0.0000   0.0000   0.0000   0.0000   0.0000   0.0000   0.0000   0.0000
     0.0000   0.0000

          k = 0.0000 0.0000 0.2298 ( 35253 PWs)   bands (ev):

   -84.7296 -84.7291 -84.6908 -84.6900 -50.8773 -50.8765 -50.8599 -50.8594
   -50.7026 -50.7020 -50.6070 -50.6063 -50.5944 -50.5934 -50.5869 -50.5861
   -44.2475 -16.3856 -16.2467 -16.2392 -16.0475 -15.8200 -15.7576 -15.5992
   -13.5981 -13.5225 -13.4480 -13.4372 -13.2872 -13.2563 -13.2194 -13.2044
   -13.1509 -13.1188 -13.0515 -13.0264  -3.8108  -3.3345  -3.2472  -2.8336
    -2.0017  -1.6552  -1.5956  -1.4487  -1.3146  -1.1754  -1.0698  -0.9665
    -0.8544  -0.7067  -0.5570  -0.1769  -0.0817  -0.0245   0.5224   0.5864
     0.6349   0.7845   0.8456   0.9507   1.0331   1.0718   1.2391   1.3956
     1.4675   1.6572   1.6849   1.7105   1.8664   1.8932   1.9343   1.9601
     2.2348   2.3458   2.3850   2.4858   2.5655   2.6179   2.6834   2.8347
     2.8844   3.0020   3.1470   3.1972   3.3413   3.3644   3.4218   3.5046
     3.5929   3.6675   3.7589   3.7842   3.8950   4.0429   4.1228   4.2500
     4.2820   4.4936   4.5222   4.6616   4.8756   4.9688   5.1938   5.2773
     9.8579  11.8364  12.2269  12.5787  12.7912  13.2011  13.7525  13.8812
    13.9054  14.0956

     occupation numbers 
     1.0000   1.0000   1.0000   1.0000   1.0000   1.0000   1.0000   1.0000
     1.0000   1.0000   1.0000   1.0000   1.0000   1.0000   1.0000   1.0000
     1.0000   1.0000   1.0000   1.0000   1.0000   1.0000   1.0000   1.0000
     1.0000   1.0000   1.0000   1.0000   1.0000   1.0000   1.0000   1.0000
     1.0000   1.0000   1.0000   1.0000   1.0000   1.0000   1.0000   1.0000
     1.0000   1.0000   1.0000   1.0000   1.0000   1.0000   1.0000   1.0000
     1.0000   1.0000   1.0000   1.0000   1.0000   1.0000   1.0000   1.0000
     1.0000   1.0000   1.0000   1.0000   1.0000   1.0000   1.0000   1.0000
     1.0000   1.0000   1.0000   1.0000   1.0000   1.0000   1.0000   1.0000
     1.0000   1.0000   1.0000   1.0000   1.0000   1.0000   1.0000   1.0000
     1.0000   1.0000   1.0000   1.0000   1.0000   1.0000   1.0000   1.0000
     1.0000   1.0000   1.0000   1.0000   1.0000   1.0000   1.0000   1.0000
     1.0000   1.0000   1.0000   1.0000   1.0000   1.0000   1.0000   1.0000
     0.0000   0.0000   0.0000   0.0000   0.0000   0.0000   0.0000   0.0000
     0.0000   0.0000

          k = 0.0000 0.0000 0.4597 ( 35284 PWs)   bands (ev):

   -84.7296 -84.7291 -84.6908 -84.6900 -50.8773 -50.8765 -50.8599 -50.8594
   -50.7026 -50.7020 -50.6070 -50.6063 -50.5944 -50.5934 -50.5869 -50.5861
   -44.2475 -16.3911 -16.2567 -16.2426 -15.9788 -15.8068 -15.7365 -15.6173
   -13.6081 -13.5518 -13.4637 -13.4447 -13.2984 -13.2686 -13.2019 -13.1966
   -13.1730 -13.1349 -13.0641 -13.0428  -3.7381  -3.3242  -3.2362  -2.8838
    -1.8551  -1.5998  -1.5833  -1.4297  -1.2904  -1.1996  -1.0649  -0.8682
    -0.7671  -0.6751  -0.6227  -0.2172  -0.0821   0.0271   0.5559   0.5952
     0.6571   0.7869   0.8740   1.0022   1.0137   1.0259   1.1531   1.4386
     1.4688   1.5847   1.6592   1.6918   1.7635   1.8335   1.8902   1.9132
     2.1247   2.2687   2.4363   2.4758   2.5145   2.5629   2.7059   2.8138
     2.9164   2.9701   3.1383   3.2150   3.2447   3.3692   3.4345   3.4468
     3.5462   3.6540   3.7819   3.8793   3.9212   4.0516   4.2389   4.2543
     4.3755   4.4671   4.6033   4.6632   4.8623   4.9423   5.1122   5.2044
    10.2686  12.0326  12.3994  12.5969  12.9193  13.1803  13.4909  13.6976
    13.7852  13.9413

     occupation numbers 
     1.0000   1.0000   1.0000   1.0000   1.0000   1.0000   1.0000   1.0000
     1.0000   1.0000   1.0000   1.0000   1.0000   1.0000   1.0000   1.0000
     1.0000   1.0000   1.0000   1.0000   1.0000   1.0000   1.0000   1.0000
     1.0000   1.0000   1.0000   1.0000   1.0000   1.0000   1.0000   1.0000
     1.0000   1.0000   1.0000   1.0000   1.0000   1.0000   1.0000   1.0000
     1.0000   1.0000   1.0000   1.0000   1.0000   1.0000   1.0000   1.0000
     1.0000   1.0000   1.0000   1.0000   1.0000   1.0000   1.0000   1.0000
     1.0000   1.0000   1.0000   1.0000   1.0000   1.0000   1.0000   1.0000
     1.0000   1.0000   1.0000   1.0000   1.0000   1.0000   1.0000   1.0000
     1.0000   1.0000   1.0000   1.0000   1.0000   1.0000   1.0000   1.0000
     1.0000   1.0000   1.0000   1.0000   1.0000   1.0000   1.0000   1.0000
     1.0000   1.0000   1.0000   1.0000   1.0000   1.0000   1.0000   1.0000
     1.0000   1.0000   1.0000   1.0000   1.0000   1.0000   1.0000   1.0000
     0.0000   0.0000   0.0000   0.0000   0.0000   0.0000   0.0000   0.0000
     0.0000   0.0000

          k = 0.0000 0.0000 0.6895 ( 35308 PWs)   bands (ev):

   -84.7296 -84.7291 -84.6908 -84.6900 -50.8772 -50.8765 -50.8599 -50.8594
   -50.7026 -50.7020 -50.6070 -50.6063 -50.5944 -50.5934 -50.5869 -50.5861
   -44.2475 -16.4057 -16.2486 -16.2420 -15.9100 -15.7883 -15.7151 -15.6433
   -13.6194 -13.5847 -13.4891 -13.4549 -13.3259 -13.2613 -13.2066 -13.1810
   -13.1725 -13.1500 -13.0833 -13.0664  -3.6282  -3.3358  -3.2110  -2.9728
    -1.6908  -1.5611  -1.5145  -1.4239  -1.2410  -1.1960  -1.0562  -0.8658
    -0.7734  -0.5741  -0.5150  -0.3734   0.0443   0.1335   0.5604   0.6427
     0.6888   0.7513   0.9073   0.9641   0.9813   1.0305   1.1050   1.4067
     1.4618   1.5256   1.5658   1.6550   1.7222   1.7685   1.8411   1.8850
     1.9136   2.1355   2.3475   2.4191   2.5068   2.6882   2.7512   2.8440
     2.9274   2.9754   3.0283   3.0739   3.2440   3.2738   3.3596   3.4400
     3.5406   3.6766   3.8909   3.9788   4.0364   4.1688   4.2608   4.3031
     4.4139   4.5112   4.6711   4.6867   4.8405   4.9147   4.9855   5.0862
    10.8371  12.2962  12.4768  12.6918  13.0182  13.1766  13.3213  13.4892
    13.6022  13.6307

     occupation numbers 
     1.0000   1.0000   1.0000   1.0000   1.0000   1.0000   1.0000   1.0000
     1.0000   1.0000   1.0000   1.0000   1.0000   1.0000   1.0000   1.0000
     1.0000   1.0000   1.0000   1.0000   1.0000   1.0000   1.0000   1.0000
     1.0000   1.0000   1.0000   1.0000   1.0000   1.0000   1.0000   1.0000
     1.0000   1.0000   1.0000   1.0000   1.0000   1.0000   1.0000   1.0000
     1.0000   1.0000   1.0000   1.0000   1.0000   1.0000   1.0000   1.0000
     1.0000   1.0000   1.0000   1.0000   1.0000   1.0000   1.0000   1.0000
     1.0000   1.0000   1.0000   1.0000   1.0000   1.0000   1.0000   1.0000
     1.0000   1.0000   1.0000   1.0000   1.0000   1.0000   1.0000   1.0000
     1.0000   1.0000   1.0000   1.0000   1.0000   1.0000   1.0000   1.0000
     1.0000   1.0000   1.0000   1.0000   1.0000   1.0000   1.0000   1.0000
     1.0000   1.0000   1.0000   1.0000   1.0000   1.0000   1.0000   1.0000
     1.0000   1.0000   1.0000   1.0000   1.0000   1.0000   1.0000   1.0000
     0.0000   0.0000   0.0000   0.0000   0.0000   0.0000   0.0000   0.0000
     0.0000   0.0000

          k = 0.0000 0.0000 0.9194 ( 35336 PWs)   bands (ev):

   -84.7296 -84.7291 -84.6908 -84.6900 -50.8772 -50.8765 -50.8599 -50.8594
   -50.7026 -50.7020 -50.6070 -50.6063 -50.5944 -50.5934 -50.5869 -50.5861
   -44.2475 -16.4171 -16.2420 -16.2359 -15.8673 -15.7607 -15.7183 -15.6606
   -13.6255 -13.6072 -13.5083 -13.4652 -13.3426 -13.2554 -13.2161 -13.1812
   -13.1511 -13.1448 -13.1056 -13.0883  -3.5024  -3.3946  -3.1637  -3.0720
    -1.6164  -1.5505  -1.4327  -1.3985  -1.1795  -1.1366  -1.0773  -1.0083
    -0.6894  -0.5469  -0.4400  -0.4157   0.2433   0.3218   0.4773   0.5778
     0.7077   0.7294   0.8748   0.9021   0.9421   1.0172   1.1760   1.2972
     1.4291   1.4850   1.5380   1.5984   1.6482   1.6923   1.8382   1.8713
     1.9612   2.1100   2.1984   2.2807   2.5364   2.7260   2.8330   2.8857
     2.9299   2.9600   3.0113   3.0231   3.1231   3.1766   3.3537   3.4375
     3.5381   3.6844   3.9836   4.0522   4.0746   4.2745   4.3214   4.3471
     4.4391   4.6494   4.6836   4.7026   4.7773   4.8617   4.9167   4.9569
    11.4670  12.0723  12.5857  12.8331  13.0827  13.1504  13.2461  13.3333
    13.5606  13.6137

     occupation numbers 
     1.0000   1.0000   1.0000   1.0000   1.0000   1.0000   1.0000   1.0000
     1.0000   1.0000   1.0000   1.0000   1.0000   1.0000   1.0000   1.0000
     1.0000   1.0000   1.0000   1.0000   1.0000   1.0000   1.0000   1.0000
     1.0000   1.0000   1.0000   1.0000   1.0000   1.0000   1.0000   1.0000
     1.0000   1.0000   1.0000   1.0000   1.0000   1.0000   1.0000   1.0000
     1.0000   1.0000   1.0000   1.0000   1.0000   1.0000   1.0000   1.0000
     1.0000   1.0000   1.0000   1.0000   1.0000   1.0000   1.0000   1.0000
     1.0000   1.0000   1.0000   1.0000   1.0000   1.0000   1.0000   1.0000
     1.0000   1.0000   1.0000   1.0000   1.0000   1.0000   1.0000   1.0000
     1.0000   1.0000   1.0000   1.0000   1.0000   1.0000   1.0000   1.0000
     1.0000   1.0000   1.0000   1.0000   1.0000   1.0000   1.0000   1.0000
     1.0000   1.0000   1.0000   1.0000   1.0000   1.0000   1.0000   1.0000
     1.0000   1.0000   1.0000   1.0000   1.0000   1.0000   1.0000   1.0000
     0.0000   0.0000   0.0000   0.0000   0.0000   0.0000   0.0000   0.0000
     0.0000   0.0000

          k = 0.0000 0.2391 0.0000 ( 35275 PWs)   bands (ev):

   -84.7296 -84.7291 -84.6908 -84.6900 -50.8773 -50.8765 -50.8599 -50.8594
   -50.7026 -50.7020 -50.6070 -50.6063 -50.5944 -50.5934 -50.5869 -50.5861
   -44.2475 -16.3891 -16.2452 -16.2246 -16.0586 -15.8236 -15.7626 -15.6137
   -13.5997 -13.5112 -13.4523 -13.4322 -13.3266 -13.2413 -13.2350 -13.1710
   -13.1424 -13.1071 -13.0346 -13.0289  -3.8100  -3.3631  -3.2232  -2.8289
    -2.0254  -1.6921  -1.5857  -1.4712  -1.2839  -1.1418  -1.0728  -0.9965
    -0.8378  -0.7345  -0.4781  -0.1827  -0.1150   0.0152   0.5486   0.5949
     0.6432   0.6899   0.7766   0.8528   0.9650   1.1685   1.3197   1.3870
     1.5577   1.6751   1.6973   1.7325   1.7878   1.8161   1.9368   1.9532
     2.1478   2.3787   2.4812   2.5243   2.5944   2.6542   2.7347   2.7971
     2.9349   3.0131   3.0408   3.0991   3.2290   3.3699   3.4716   3.5581
     3.6017   3.6231   3.7174   3.8623   3.9884   4.0341   4.0494   4.2526
     4.2593   4.4604   4.5320   4.6297   4.8242   4.9677   5.2930   5.3106
     9.8621  11.8505  12.2371  12.4907  12.8374  13.3122  13.7116  13.9146
    14.0273  14.0779

     occupation numbers 
     1.0000   1.0000   1.0000   1.0000   1.0000   1.0000   1.0000   1.0000
     1.0000   1.0000   1.0000   1.0000   1.0000   1.0000   1.0000   1.0000
     1.0000   1.0000   1.0000   1.0000   1.0000   1.0000   1.0000   1.0000
     1.0000   1.0000   1.0000   1.0000   1.0000   1.0000   1.0000   1.0000
     1.0000   1.0000   1.0000   1.0000   1.0000   1.0000   1.0000   1.0000
     1.0000   1.0000   1.0000   1.0000   1.0000   1.0000   1.0000   1.0000
     1.0000   1.0000   1.0000   1.0000   1.0000   1.0000   1.0000   1.0000
     1.0000   1.0000   1.0000   1.0000   1.0000   1.0000   1.0000   1.0000
     1.0000   1.0000   1.0000   1.0000   1.0000   1.0000   1.0000   1.0000
     1.0000   1.0000   1.0000   1.0000   1.0000   1.0000   1.0000   1.0000
     1.0000   1.0000   1.0000   1.0000   1.0000   1.0000   1.0000   1.0000
     1.0000   1.0000   1.0000   1.0000   1.0000   1.0000   1.0000   1.0000
     1.0000   1.0000   1.0000   1.0000   1.0000   1.0000   1.0000   1.0000
     0.0000   0.0000   0.0000   0.0000   0.0000   0.0000   0.0000   0.0000
     0.0000   0.0000

          k = 0.0000 0.2391 0.2298 ( 35285 PWs)   bands (ev):

   -84.7296 -84.7291 -84.6908 -84.6900 -50.8773 -50.8765 -50.8599 -50.8594
   -50.7026 -50.7020 -50.6070 -50.6063 -50.5944 -50.5934 -50.5869 -50.5861
   -44.2475 -16.3827 -16.2483 -16.2384 -16.0341 -15.8167 -15.7574 -15.6136
   -13.6030 -13.5195 -13.4553 -13.4337 -13.3386 -13.2567 -13.2258 -13.1742
   -13.1385 -13.1116 -13.0423 -13.0335  -3.7851  -3.3542  -3.2205  -2.8427
    -1.9749  -1.6652  -1.5844  -1.4592  -1.2761  -1.1685  -1.0507  -0.9522
    -0.8178  -0.7084  -0.5209  -0.2170  -0.0951   0.0236   0.5538   0.5849
     0.6716   0.6777   0.7929   0.8655   0.9385   1.1456   1.3161   1.3973
     1.5055   1.6533   1.6790   1.7394   1.7863   1.7970   1.9032   1.9464
     2.2724   2.3512   2.4358   2.5037   2.5600   2.6696   2.7014   2.7825
     2.9421   2.9857   3.0542   3.1503   3.2226   3.3794   3.3998   3.5549
     3.5740   3.6159   3.7546   3.8043   3.9640   4.0493   4.1222   4.2556
     4.2905   4.4539   4.5746   4.6068   4.8099   4.9772   5.2719   5.2967
    10.0092  11.9266  12.2950  12.5327  12.8482  13.2790  13.7380  13.7844
    13.9247  14.0881

     occupation numbers 
     1.0000   1.0000   1.0000   1.0000   1.0000   1.0000   1.0000   1.0000
     1.0000   1.0000   1.0000   1.0000   1.0000   1.0000   1.0000   1.0000
     1.0000   1.0000   1.0000   1.0000   1.0000   1.0000   1.0000   1.0000
     1.0000   1.0000   1.0000   1.0000   1.0000   1.0000   1.0000   1.0000
     1.0000   1.0000   1.0000   1.0000   1.0000   1.0000   1.0000   1.0000
     1.0000   1.0000   1.0000   1.0000   1.0000   1.0000   1.0000   1.0000
     1.0000   1.0000   1.0000   1.0000   1.0000   1.0000   1.0000   1.0000
     1.0000   1.0000   1.0000   1.0000   1.0000   1.0000   1.0000   1.0000
     1.0000   1.0000   1.0000   1.0000   1.0000   1.0000   1.0000   1.0000
     1.0000   1.0000   1.0000   1.0000   1.0000   1.0000   1.0000   1.0000
     1.0000   1.0000   1.0000   1.0000   1.0000   1.0000   1.0000   1.0000
     1.0000   1.0000   1.0000   1.0000   1.0000   1.0000   1.0000   1.0000
     1.0000   1.0000   1.0000   1.0000   1.0000   1.0000   1.0000   1.0000
     0.0000   0.0000   0.0000   0.0000   0.0000   0.0000   0.0000   0.0000
     0.0000   0.0000

          k = 0.0000 0.2391 0.4597 ( 35280 PWs)   bands (ev):

   -84.7296 -84.7291 -84.6908 -84.6900 -50.8773 -50.8765 -50.8599 -50.8594
   -50.7026 -50.7020 -50.6070 -50.6063 -50.5944 -50.5934 -50.5869 -50.5861
   -44.2475 -16.3832 -16.2598 -16.2422 -15.9729 -15.8057 -15.7363 -15.6238
   -13.6131 -13.5504 -13.4638 -13.4408 -13.3499 -13.2766 -13.2294 -13.1771
   -13.1428 -13.1165 -13.0562 -13.0452  -3.7135  -3.3389  -3.2117  -2.8912
    -1.8348  -1.5993  -1.5741  -1.4387  -1.2512  -1.1886  -1.0431  -0.8381
    -0.7550  -0.6332  -0.6302  -0.2967  -0.0453   0.0511   0.5600   0.5947
     0.6348   0.6859   0.8570   0.9086   0.9407   1.1027   1.2706   1.4204
     1.4390   1.6259   1.6310   1.6996   1.7485   1.7990   1.8508   1.9212
     2.1691   2.3102   2.4466   2.4867   2.5363   2.5464   2.7407   2.8025
     2.8501   2.9953   3.1098   3.1513   3.2230   3.3000   3.3891   3.4509
     3.5613   3.6392   3.7764   3.8510   3.9735   4.0623   4.2191   4.2696
     4.3651   4.4475   4.5726   4.6481   4.7857   4.9832   5.2174   5.2462
    10.4073  12.1233  12.4500  12.6438  12.9192  13.2444  13.5040  13.6853
    13.7379  13.9922

     occupation numbers 
     1.0000   1.0000   1.0000   1.0000   1.0000   1.0000   1.0000   1.0000
     1.0000   1.0000   1.0000   1.0000   1.0000   1.0000   1.0000   1.0000
     1.0000   1.0000   1.0000   1.0000   1.0000   1.0000   1.0000   1.0000
     1.0000   1.0000   1.0000   1.0000   1.0000   1.0000   1.0000   1.0000
     1.0000   1.0000   1.0000   1.0000   1.0000   1.0000   1.0000   1.0000
     1.0000   1.0000   1.0000   1.0000   1.0000   1.0000   1.0000   1.0000
     1.0000   1.0000   1.0000   1.0000   1.0000   1.0000   1.0000   1.0000
     1.0000   1.0000   1.0000   1.0000   1.0000   1.0000   1.0000   1.0000
     1.0000   1.0000   1.0000   1.0000   1.0000   1.0000   1.0000   1.0000
     1.0000   1.0000   1.0000   1.0000   1.0000   1.0000   1.0000   1.0000
     1.0000   1.0000   1.0000   1.0000   1.0000   1.0000   1.0000   1.0000
     1.0000   1.0000   1.0000   1.0000   1.0000   1.0000   1.0000   1.0000
     1.0000   1.0000   1.0000   1.0000   1.0000   1.0000   1.0000   1.0000
     0.0000   0.0000   0.0000   0.0000   0.0000   0.0000   0.0000   0.0000
     0.0000   0.0000

          k = 0.0000 0.2391 0.6895 ( 35285 PWs)   bands (ev):

   -84.7296 -84.7291 -84.6908 -84.6900 -50.8772 -50.8765 -50.8599 -50.8594
   -50.7026 -50.7020 -50.6070 -50.6063 -50.5944 -50.5934 -50.5869 -50.5861
   -44.2475 -16.3976 -16.2507 -16.2418 -15.9060 -15.7983 -15.7078 -15.6434
   -13.6254 -13.5861 -13.4836 -13.4532 -13.3593 -13.2891 -13.2423 -13.1758
   -13.1495 -13.1081 -13.0741 -13.0631  -3.6058  -3.3424  -3.1912  -2.9767
    -1.6736  -1.5492  -1.5126  -1.4280  -1.2088  -1.1744  -1.0361  -0.8449
    -0.7277  -0.5701  -0.5222  -0.4196   0.0570   0.1160   0.4966   0.5828
     0.6405   0.7344   0.8622   0.9532   1.0163   1.1005   1.1841   1.3548
     1.4621   1.5457   1.5791   1.6506   1.7227   1.7705   1.8162   1.8729
     1.9432   2.1547   2.3456   2.4267   2.5162   2.6873   2.7483   2.8266
     2.8370   2.9816   3.0329   3.1363   3.1835   3.2454   3.3307   3.4238
     3.5435   3.6370   3.8882   3.9797   4.0284   4.1153   4.2541   4.2920
     4.4120   4.4827   4.5439   4.6597   4.8238   4.9847   5.1318   5.1705
    10.9631  12.3883  12.5475  12.7715  13.0566  13.1922  13.3479  13.4714
    13.5962  13.6301

     occupation numbers 
     1.0000   1.0000   1.0000   1.0000   1.0000   1.0000   1.0000   1.0000
     1.0000   1.0000   1.0000   1.0000   1.0000   1.0000   1.0000   1.0000
     1.0000   1.0000   1.0000   1.0000   1.0000   1.0000   1.0000   1.0000
     1.0000   1.0000   1.0000   1.0000   1.0000   1.0000   1.0000   1.0000
     1.0000   1.0000   1.0000   1.0000   1.0000   1.0000   1.0000   1.0000
     1.0000   1.0000   1.0000   1.0000   1.0000   1.0000   1.0000   1.0000
     1.0000   1.0000   1.0000   1.0000   1.0000   1.0000   1.0000   1.0000
     1.0000   1.0000   1.0000   1.0000   1.0000   1.0000   1.0000   1.0000
     1.0000   1.0000   1.0000   1.0000   1.0000   1.0000   1.0000   1.0000
     1.0000   1.0000   1.0000   1.0000   1.0000   1.0000   1.0000   1.0000
     1.0000   1.0000   1.0000   1.0000   1.0000   1.0000   1.0000   1.0000
     1.0000   1.0000   1.0000   1.0000   1.0000   1.0000   1.0000   1.0000
     1.0000   1.0000   1.0000   1.0000   1.0000   1.0000   1.0000   1.0000
     0.0000   0.0000   0.0000   0.0000   0.0000   0.0000   0.0000   0.0000
     0.0000   0.0000

          k = 0.0000 0.2391 0.9194 ( 35271 PWs)   bands (ev):

   -84.7296 -84.7291 -84.6908 -84.6900 -50.8772 -50.8765 -50.8599 -50.8594
   -50.7026 -50.7020 -50.6070 -50.6063 -50.5944 -50.5934 -50.5869 -50.5861
   -44.2475 -16.4115 -16.2420 -16.2363 -15.8572 -15.7875 -15.6918 -15.6673
   -13.6318 -13.6107 -13.5037 -13.4639 -13.3667 -13.2915 -13.2432 -13.1902
   -13.1359 -13.0992 -13.0927 -13.0772  -3.4843  -3.3898  -3.1529  -3.0703
    -1.5931  -1.5407  -1.4314  -1.4026  -1.1602  -1.1152  -1.0453  -0.9759
    -0.6643  -0.5737  -0.4360  -0.4160   0.2031   0.2565   0.3748   0.4346
     0.7358   0.8166   0.8492   0.9829   1.0277   1.0643   1.2044   1.2727
     1.4293   1.4928   1.5427   1.6055   1.6403   1.7155   1.7906   1.8220
     1.9643   2.0847   2.2068   2.3051   2.5492   2.7232   2.7865   2.8218
     2.9085   2.9568   2.9897   3.0918   3.1113   3.2092   3.3079   3.4286
     3.5316   3.6340   3.9807   4.0301   4.1064   4.2401   4.2787   4.3151
     4.3659   4.4704   4.5870   4.6589   4.8795   4.9800   5.0352   5.1083
    11.5835  12.1764  12.6724  12.9379  13.1332  13.1766  13.2741  13.3468
    13.5064  13.5806

     occupation numbers 
     1.0000   1.0000   1.0000   1.0000   1.0000   1.0000   1.0000   1.0000
     1.0000   1.0000   1.0000   1.0000   1.0000   1.0000   1.0000   1.0000
     1.0000   1.0000   1.0000   1.0000   1.0000   1.0000   1.0000   1.0000
     1.0000   1.0000   1.0000   1.0000   1.0000   1.0000   1.0000   1.0000
     1.0000   1.0000   1.0000   1.0000   1.0000   1.0000   1.0000   1.0000
     1.0000   1.0000   1.0000   1.0000   1.0000   1.0000   1.0000   1.0000
     1.0000   1.0000   1.0000   1.0000   1.0000   1.0000   1.0000   1.0000
     1.0000   1.0000   1.0000   1.0000   1.0000   1.0000   1.0000   1.0000
     1.0000   1.0000   1.0000   1.0000   1.0000   1.0000   1.0000   1.0000
     1.0000   1.0000   1.0000   1.0000   1.0000   1.0000   1.0000   1.0000
     1.0000   1.0000   1.0000   1.0000   1.0000   1.0000   1.0000   1.0000
     1.0000   1.0000   1.0000   1.0000   1.0000   1.0000   1.0000   1.0000
     1.0000   1.0000   1.0000   1.0000   1.0000   1.0000   1.0000   1.0000
     0.0000   0.0000   0.0000   0.0000   0.0000   0.0000   0.0000   0.0000
     0.0000   0.0000

          k = 0.0000 0.4781 0.0000 ( 35227 PWs)   bands (ev):

   -84.7296 -84.7291 -84.6908 -84.6900 -50.8773 -50.8765 -50.8599 -50.8594
   -50.7026 -50.7020 -50.6070 -50.6063 -50.5944 -50.5934 -50.5869 -50.5861
   -44.2475 -16.3952 -16.2455 -16.2244 -15.9967 -15.8198 -15.7605 -15.6660
   -13.6099 -13.5140 -13.4839 -13.4328 -13.3467 -13.2600 -13.2213 -13.1610
   -13.1480 -13.0662 -13.0516 -13.0130  -3.7376  -3.4273  -3.1473  -2.8654
    -1.9486  -1.7203  -1.5698  -1.4862  -1.2219  -1.1483  -1.0048  -0.9113
    -0.8281  -0.6622  -0.4280  -0.2597  -0.0851   0.0952   0.5087   0.5327
     0.6571   0.6781   0.7398   0.7854   0.8185   1.1856   1.3578   1.4834
     1.4908   1.5225   1.5986   1.6778   1.7567   1.7822   1.9531   2.0013
     2.2414   2.3579   2.4684   2.5515   2.5946   2.6464   2.6897   2.7513
     2.9195   2.9972   3.0268   3.0884   3.2087   3.3247   3.4201   3.4347
     3.5255   3.5593   3.8901   3.9380   4.0075   4.0423   4.0847   4.2664
     4.2900   4.3938   4.4779   4.5716   4.7400   5.1023   5.3171   5.3459
    10.2885  12.0905  12.1188  12.4506  13.0321  13.5129  13.5378  13.7960
    14.0189  14.1817

     occupation numbers 
     1.0000   1.0000   1.0000   1.0000   1.0000   1.0000   1.0000   1.0000
     1.0000   1.0000   1.0000   1.0000   1.0000   1.0000   1.0000   1.0000
     1.0000   1.0000   1.0000   1.0000   1.0000   1.0000   1.0000   1.0000
     1.0000   1.0000   1.0000   1.0000   1.0000   1.0000   1.0000   1.0000
     1.0000   1.0000   1.0000   1.0000   1.0000   1.0000   1.0000   1.0000
     1.0000   1.0000   1.0000   1.0000   1.0000   1.0000   1.0000   1.0000
     1.0000   1.0000   1.0000   1.0000   1.0000   1.0000   1.0000   1.0000
     1.0000   1.0000   1.0000   1.0000   1.0000   1.0000   1.0000   1.0000
     1.0000   1.0000   1.0000   1.0000   1.0000   1.0000   1.0000   1.0000
     1.0000   1.0000   1.0000   1.0000   1.0000   1.0000   1.0000   1.0000
     1.0000   1.0000   1.0000   1.0000   1.0000   1.0000   1.0000   1.0000
     1.0000   1.0000   1.0000   1.0000   1.0000   1.0000   1.0000   1.0000
     1.0000   1.0000   1.0000   1.0000   1.0000   1.0000   1.0000   1.0000
     0.0000   0.0000   0.0000   0.0000   0.0000   0.0000   0.0000   0.0000
     0.0000   0.0000

          k = 0.0000 0.4781 0.2298 ( 35266 PWs)   bands (ev):

   -84.7296 -84.7291 -84.6908 -84.6900 -50.8773 -50.8765 -50.8599 -50.8594
   -50.7026 -50.7020 -50.6070 -50.6063 -50.5944 -50.5934 -50.5869 -50.5861
   -44.2475 -16.3862 -16.2481 -16.2362 -15.9824 -15.8101 -15.7571 -15.6609
   -13.6125 -13.5141 -13.4901 -13.4362 -13.3644 -13.2685 -13.2337 -13.1629
   -13.1409 -13.0624 -13.0535 -13.0208  -3.7140  -3.4145  -3.1460  -2.8781
    -1.9033  -1.6920  -1.5588  -1.4765  -1.2170  -1.1526  -0.9707  -0.9042
    -0.7765  -0.6640  -0.4672  -0.3136  -0.0543   0.1027   0.4770   0.5087
     0.6338   0.7167   0.7356   0.7991   0.8440   1.2129   1.3191   1.4088
     1.4734   1.5226   1.6192   1.6880   1.7533   1.7688   1.9531   2.0240
     2.3202   2.3308   2.4693   2.5244   2.5769   2.6510   2.6861   2.7371
     2.9126   2.9771   3.0074   3.0667   3.1658   3.3290   3.4051   3.4358
     3.4721   3.5731   3.8414   3.9541   4.0013   4.0870   4.1203   4.2765
     4.2952   4.3814   4.4606   4.5628   4.7773   5.1084   5.3171   5.3349
    10.4211  12.1563  12.1768  12.5316  13.0346  13.4374  13.6261  13.6931
    13.9333  14.1514

     occupation numbers 
     1.0000   1.0000   1.0000   1.0000   1.0000   1.0000   1.0000   1.0000
     1.0000   1.0000   1.0000   1.0000   1.0000   1.0000   1.0000   1.0000
     1.0000   1.0000   1.0000   1.0000   1.0000   1.0000   1.0000   1.0000
     1.0000   1.0000   1.0000   1.0000   1.0000   1.0000   1.0000   1.0000
     1.0000   1.0000   1.0000   1.0000   1.0000   1.0000   1.0000   1.0000
     1.0000   1.0000   1.0000   1.0000   1.0000   1.0000   1.0000   1.0000
     1.0000   1.0000   1.0000   1.0000   1.0000   1.0000   1.0000   1.0000
     1.0000   1.0000   1.0000   1.0000   1.0000   1.0000   1.0000   1.0000
     1.0000   1.0000   1.0000   1.0000   1.0000   1.0000   1.0000   1.0000
     1.0000   1.0000   1.0000   1.0000   1.0000   1.0000   1.0000   1.0000
     1.0000   1.0000   1.0000   1.0000   1.0000   1.0000   1.0000   1.0000
     1.0000   1.0000   1.0000   1.0000   1.0000   1.0000   1.0000   1.0000
     1.0000   1.0000   1.0000   1.0000   1.0000   1.0000   1.0000   1.0000
     0.0000   0.0000   0.0000   0.0000   0.0000   0.0000   0.0000   0.0000
     0.0000   0.0000

          k = 0.0000 0.4781 0.4597 ( 35276 PWs)   bands (ev):

   -84.7296 -84.7291 -84.6908 -84.6900 -50.8773 -50.8765 -50.8599 -50.8594
   -50.7026 -50.7020 -50.6070 -50.6063 -50.5944 -50.5934 -50.5869 -50.5861
   -44.2475 -16.3801 -16.2589 -16.2417 -15.9345 -15.7962 -15.7397 -15.6602
   -13.6214 -13.5519 -13.4757 -13.4433 -13.3945 -13.3002 -13.2512 -13.1699
   -13.1371 -13.0600 -13.0538 -13.0321  -3.6469  -3.3858  -3.1452  -2.9193
    -1.7783  -1.6187  -1.5331  -1.4523  -1.1981  -1.1526  -0.9537  -0.7949
    -0.6892  -0.6542  -0.5638  -0.4027  -0.0256   0.1204   0.3960   0.4752
     0.5984   0.7407   0.7703   0.8990   0.9350   1.1802   1.3132   1.3571
     1.4058   1.4757   1.6282   1.6941   1.7354   1.7679   1.9345   2.0331
     2.1748   2.3567   2.4540   2.4987   2.5684   2.6071   2.6676   2.7458
     2.8133   2.9354   3.0523   3.0649   3.1342   3.2520   3.3440   3.4191
     3.4447   3.5999   3.8038   3.9457   4.0468   4.1098   4.1923   4.2984
     4.3341   4.3772   4.4330   4.5373   4.8637   5.1148   5.2927   5.3179
    10.7846  12.2986  12.3845  12.7420  13.0844  13.4074  13.4744  13.6087
    13.7757  14.0594

     occupation numbers 
     1.0000   1.0000   1.0000   1.0000   1.0000   1.0000   1.0000   1.0000
     1.0000   1.0000   1.0000   1.0000   1.0000   1.0000   1.0000   1.0000
     1.0000   1.0000   1.0000   1.0000   1.0000   1.0000   1.0000   1.0000
     1.0000   1.0000   1.0000   1.0000   1.0000   1.0000   1.0000   1.0000
[...]
     atom   11 type  3   force =     0.00572536   -0.00099204   -0.00221945
     atom   12 type  3   force =     0.00778137    0.00021679    0.00314108
     atom   13 type  3   force =    -0.00572536    0.00099204    0.00221945
     atom   14 type  3   force =    -0.03157283   -0.00014234    0.00927871
     atom   15 type  3   force =     0.03148339    0.00037736    0.01029721
     atom   16 type  3   force =     0.03157283    0.00014234   -0.00927871
     atom   17 type  3   force =    -0.03148339   -0.00037736   -0.01029721
     atom   18 type  3   force =     0.01129023    0.02397013   -0.00797618
     atom   19 type  3   force =    -0.01137951   -0.02548601   -0.01020656
     atom   20 type  3   force =    -0.01183652    0.02467785    0.00808567
     atom   21 type  3   force =     0.01205816   -0.02553409    0.00780614
     atom   22 type  3   force =    -0.01129023   -0.02397013    0.00797618
     atom   23 type  3   force =     0.01137951    0.02548601    0.01020656
     atom   24 type  3   force =     0.01183652   -0.02467785   -0.00808567
     atom   25 type  3   force =    -0.01205816    0.02553409   -0.00780614
     The non-local contrib.  to forces
     atom    1 type  2   force =     0.00000000    0.00000000    0.00000000
     atom    2 type  1   force =     0.09560465   -0.06412847    0.13068437
     atom    3 type  1   force =     0.08050197    0.00581860    0.11174646
     atom    4 type  1   force =    -0.09560465    0.06412847   -0.13068437
     atom    5 type  1   force =    -0.08050197   -0.00581860   -0.11174646
     atom    6 type  4   force =    -0.00607127    0.00456106   -0.01451576
     atom    7 type  4   force =     0.01097711    0.00537744    0.00477403
     atom    8 type  4   force =     0.00607127   -0.00456106    0.01451576
     atom    9 type  4   force =    -0.01097711   -0.00537744   -0.00477403
     atom   10 type  3   force =     0.33303051    0.02120062   -1.48514333
     atom   11 type  3   force =    -0.20075669    0.02327167   -1.45844808
     atom   12 type  3   force =    -0.33303051   -0.02120062    1.48514333
     atom   13 type  3   force =     0.20075669   -0.02327167    1.45844808
     atom   14 type  3   force =     1.20452474    0.01443509   -0.57763679
     atom   15 type  3   force =    -1.17630226   -0.01373214   -0.68751269
     atom   16 type  3   force =    -1.20452474   -0.01443509    0.57763679
     atom   17 type  3   force =     1.17630226    0.01373214    0.68751269
     atom   18 type  3   force =    -0.52471738   -1.05926882    0.75038232
     atom   19 type  3   force =     0.57596430    1.06825652    0.82757606
     atom   20 type  3   force =     0.56535370   -1.08673701   -0.75931727
     atom   21 type  3   force =    -0.62734666    1.07855463   -0.69307059
     atom   22 type  3   force =     0.52471738    1.05926882   -0.75038232
     atom   23 type  3   force =    -0.57596430   -1.06825652   -0.82757606
     atom   24 type  3   force =    -0.56535370    1.08673701    0.75931727
     atom   25 type  3   force =     0.62734666   -1.07855463    0.69307059
     The ionic contribution  to forces
     atom    1 type  2   force =    -0.00000612    0.00005370   -0.00003918
     atom    2 type  1   force =    -2.45920426    0.96566270   -0.60399289
     atom    3 type  1   force =    -9.13041578   -1.72325616   -0.58037698
     atom    4 type  1   force =     2.45896562   -0.96562879    0.60385553
     atom    5 type  1   force =     9.13051607    1.72349873    0.58032713
     atom    6 type  4   force =    -4.12370639    0.05140602    0.65695403
     atom    7 type  4   force =     1.22667972   -1.52970435    1.17897668
     atom    8 type  4   force =     4.12376209   -0.05140612   -0.65708229
     atom    9 type  4   force =    -1.22682941    1.52969476   -1.17863177
     atom   10 type  3   force =   -11.34369232   -0.08198337    2.70455239
     atom   11 type  3   force =     5.95396882   -2.57448735    1.70419127
     atom   12 type  3   force =    11.34386304    0.08196668   -2.70426539
     atom   13 type  3   force =    -5.95391935    2.57447226   -1.70456690
     atom   14 type  3   force =     0.51949974    2.53703776    4.19715310
     atom   15 type  3   force =    -2.94871846    0.09914585    6.61967549
     atom   16 type  3   force =    -0.51911783   -2.53704164   -4.19705137
     atom   17 type  3   force =     2.94858420   -0.09910516   -6.61964618
     atom   18 type  3   force =    -4.63934542    3.07339666   -2.83991533
     atom   19 type  3   force =     1.26250701   -2.62579488   -3.26429391
     atom   20 type  3   force =     5.11449212    3.21330100    2.98197534
     atom   21 type  3   force =     1.53090668   -2.89402631    0.79702735
     atom   22 type  3   force =     4.63933402   -3.07362260    2.83980022
     atom   23 type  3   force =    -1.26261894    2.62564146    3.26439606
     atom   24 type  3   force =    -5.11444506   -3.21328638   -2.98196927
     atom   25 type  3   force =    -1.53105980    2.89406554   -0.79705314
     The local contribution  to forces
     atom    1 type  2   force =    -0.00455114   -0.00178952   -0.00228747
     atom    2 type  1   force =     2.34954487   -0.91076954    0.46649719
     atom    3 type  1   force =     9.04747563    1.71357206    0.46140504
     atom    4 type  1   force =    -2.37165702    0.89970657   -0.47700609
     atom    5 type  1   force =    -9.06575846   -1.72211707   -0.47249889
     atom    6 type  4   force =     4.14378940   -0.05581083   -0.62137086
     atom    7 type  4   force =    -1.24578773    1.52660640   -1.15869520
     atom    8 type  4   force =    -4.14367986    0.05572730    0.62125301
     atom    9 type  4   force =     1.24587653   -1.52654109    1.15879521
     atom   10 type  3   force =    11.00464646    0.05943160   -1.23588252
     atom   11 type  3   force =    -5.75236498    2.54921364   -0.26263692
     atom   12 type  3   force =   -11.00825208   -0.06208230    1.23480520
     atom   13 type  3   force =     5.74727272   -2.55156130    0.25897983
     atom   14 type  3   force =    -1.74731225   -2.55278225   -3.61680991
     atom   15 type  3   force =     4.14513192   -0.08648122   -5.92963130
     atom   16 type  3   force =     1.74422583    2.55004376    3.61438339
     atom   17 type  3   force =    -4.14874508    0.08379189    5.92668627
     atom   18 type  3   force =     5.16828898   -2.00009210    2.08688403
     atom   19 type  3   force =    -1.84759225    1.53956901    2.43279175
     atom   20 type  3   force =    -5.68966044   -2.11216614   -2.22273401
     atom   21 type  3   force =    -0.89935338    1.79788308   -0.10347068
     atom   22 type  3   force =    -5.17366216    1.99800748   -2.08936054
     atom   23 type  3   force =     1.84262478   -1.54193310   -2.43506792
     atom   24 type  3   force =     5.68414579    2.10964051    2.21979433
     atom   25 type  3   force =     0.89427695   -1.80007913    0.10117350
     The core correction contribution to forces
     atom    1 type  2   force =     0.00000000    0.00000000    0.00000000
     atom    2 type  1   force =    -0.00120023    0.00089128   -0.00033596
     atom    3 type  1   force =    -0.00028725   -0.00007281    0.00079042
     atom    4 type  1   force =     0.00195182   -0.00051720    0.00068469
     atom    5 type  1   force =     0.00090153    0.00037775   -0.00042366
     atom    6 type  4   force =     0.00048819   -0.00024739    0.00007821
     atom    7 type  4   force =    -0.00057739    0.00009100   -0.00188618
     atom    8 type  4   force =    -0.00047055    0.00025393   -0.00006895
     atom    9 type  4   force =     0.00059744   -0.00008309    0.00188923
     atom   10 type  3   force =    -0.00348770   -0.00019990    0.01293445
     atom   11 type  3   force =     0.00235458   -0.00017233    0.01265591
     atom   12 type  3   force =     0.00348368    0.00019844   -0.01293829
     atom   13 type  3   force =    -0.00235780    0.00017078   -0.01266021
     atom   14 type  3   force =    -0.00964207   -0.00020502    0.00540864
     atom   15 type  3   force =     0.00949010    0.00011954    0.00630755
     atom   16 type  3   force =     0.00963592    0.00020335   -0.00540979
     atom   17 type  3   force =    -0.00949743   -0.00012116   -0.00630947
     atom   18 type  3   force =     0.00436727    0.00877486   -0.00662366
     atom   19 type  3   force =    -0.00480422   -0.00877915   -0.00737006
     atom   20 type  3   force =    -0.00475451    0.00902207    0.00669504
     atom   21 type  3   force =     0.00523786   -0.00902570    0.00615601
     atom   22 type  3   force =    -0.00437113   -0.00877985    0.00662309
     atom   23 type  3   force =     0.00479864    0.00877409    0.00736600
     atom   24 type  3   force =     0.00475213   -0.00902350   -0.00669556
     atom   25 type  3   force =    -0.00524173    0.00902437   -0.00616031
     The Hubbard contrib.    to forces
     atom    1 type  2   force =     0.00000000    0.00000000    0.00000000
     atom    2 type  1   force =     0.00000000    0.00000000    0.00000000
     atom    3 type  1   force =     0.00000000    0.00000000    0.00000000
     atom    4 type  1   force =     0.00000000    0.00000000    0.00000000
     atom    5 type  1   force =     0.00000000    0.00000000    0.00000000
     atom    6 type  4   force =     0.00000000    0.00000000    0.00000000
     atom    7 type  4   force =     0.00000000    0.00000000    0.00000000
     atom    8 type  4   force =     0.00000000    0.00000000    0.00000000
     atom    9 type  4   force =     0.00000000    0.00000000    0.00000000
     atom   10 type  3   force =     0.00000000    0.00000000    0.00000000
     atom   11 type  3   force =     0.00000000    0.00000000    0.00000000
     atom   12 type  3   force =     0.00000000    0.00000000    0.00000000
     atom   13 type  3   force =     0.00000000    0.00000000    0.00000000
     atom   14 type  3   force =     0.00000000    0.00000000    0.00000000
     atom   15 type  3   force =     0.00000000    0.00000000    0.00000000
     atom   16 type  3   force =     0.00000000    0.00000000    0.00000000
     atom   17 type  3   force =     0.00000000    0.00000000    0.00000000
     atom   18 type  3   force =     0.00000000    0.00000000    0.00000000
     atom   19 type  3   force =     0.00000000    0.00000000    0.00000000
     atom   20 type  3   force =     0.00000000    0.00000000    0.00000000
     atom   21 type  3   force =     0.00000000    0.00000000    0.00000000
     atom   22 type  3   force =     0.00000000    0.00000000    0.00000000
     atom   23 type  3   force =     0.00000000    0.00000000    0.00000000
     atom   24 type  3   force =     0.00000000    0.00000000    0.00000000
     atom   25 type  3   force =     0.00000000    0.00000000    0.00000000
     The SCF correction term to forces
     atom    1 type  2   force =    -0.00000000   -0.00000000   -0.00000000
     atom    2 type  1   force =     0.00000952   -0.00000143    0.00000164
     atom    3 type  1   force =     0.00000730    0.00000106   -0.00000159
     atom    4 type  1   force =    -0.00000953    0.00000142   -0.00000164
     atom    5 type  1   force =    -0.00000732   -0.00000107    0.00000159
     atom    6 type  4   force =     0.00000117   -0.00000041   -0.00000070
     atom    7 type  4   force =     0.00000089    0.00000022   -0.00000021
     atom    8 type  4   force =    -0.00000117    0.00000041    0.00000070
     atom    9 type  4   force =    -0.00000089   -0.00000022    0.00000021
     atom   10 type  3   force =     0.00000222   -0.00000015    0.00000085
     atom   11 type  3   force =     0.00000062    0.00000018   -0.00000014
     atom   12 type  3   force =    -0.00000222    0.00000015   -0.00000085
     atom   13 type  3   force =    -0.00000062   -0.00000018    0.00000014
     atom   14 type  3   force =     0.00000168    0.00000006    0.00000070
     atom   15 type  3   force =     0.00000471    0.00000020   -0.00000066
     atom   16 type  3   force =    -0.00000168   -0.00000006   -0.00000070
     atom   17 type  3   force =    -0.00000471   -0.00000020    0.00000066
     atom   18 type  3   force =     0.00000256    0.00000176    0.00000037
     atom   19 type  3   force =     0.00000316    0.00000120    0.00000056
     atom   20 type  3   force =    -0.00000237    0.00000171   -0.00000049
     atom   21 type  3   force =    -0.00000305    0.00000112    0.00000041
     atom   22 type  3   force =    -0.00000256   -0.00000176   -0.00000037
     atom   23 type  3   force =    -0.00000316   -0.00000120   -0.00000056
     atom   24 type  3   force =     0.00000237   -0.00000171    0.00000049
     atom   25 type  3   force =     0.00000305   -0.00000112   -0.00000041

     Total force =     0.117891     Total SCF correction =     0.000021


     Computing stress (Cartesian axis) and pressure


     negative rho (up, down):  0.000E+00 9.523E-04
          total   stress  (Ry/bohr**3)                   (kbar)     P=       26.45
   0.00020870   0.00002398  -0.00002681           30.70        3.53       -3.94
   0.00002398   0.00024605  -0.00001882            3.53       36.20       -2.77
  -0.00002681  -0.00001882   0.00008467           -3.94       -2.77       12.46

     kinetic stress (kbar)  27433.82    -19.06      3.05
                              -19.06  27642.37      0.63
                                3.05      0.63  27400.57

     local   stress (kbar)  -4580.76  -2938.07    958.43
                            -2938.07 -14925.76   1005.59
                              958.43   1005.59  -7138.84

     nonloc. stress (kbar)  -6996.74     -1.09      0.07
                               -1.09  -6940.44      2.14
                                0.07      2.14  -6937.60

     hartree stress (kbar)  12967.24   1183.87   -367.32
                             1183.87  18525.67   -405.62
                             -367.32   -405.62  14759.23

     exc-cor stress (kbar)  -2903.82      1.65     -0.70
                                1.65  -2910.59     -0.36
                               -0.70     -0.36  -2908.90

     corecor stress (kbar)  -3223.10     -0.70      0.54
                               -0.70  -3222.04     -0.04
                                0.54     -0.04  -3223.51

     ewald   stress (kbar) -22665.94   1776.92   -598.00
                             1776.92 -18133.03   -605.11
                             -598.00   -605.11 -21938.49

     hubbard stress (kbar)      0.00      0.00      0.00
                                0.00      0.00      0.00
                                0.00      0.00      0.00

     DFT-D   stress (kbar)      0.00      0.00      0.00
                                0.00      0.00      0.00
                                0.00      0.00      0.00

     XDM     stress (kbar)      0.00      0.00      0.00
                                0.00      0.00      0.00
                                0.00      0.00      0.00

     dft-nl  stress (kbar)      0.00      0.00      0.00
                                0.00      0.00      0.00
                                0.00      0.00      0.00

     TS-vdW  stress (kbar)      0.00      0.00      0.00
                                0.00      0.00      0.00
                                0.00      0.00      0.00



     init_run     :   2107.62s CPU   2484.28s WALL (       1 calls)
     electrons    : 105297.52s CPU 129276.32s WALL (       1 calls)
     forces       :    285.84s CPU    318.46s WALL (       1 calls)
     stress       :    867.96s CPU   1019.89s WALL (       1 calls)

     Called by init_run:
     wfcinit      :   2088.85s CPU   2458.30s WALL (       1 calls)
     wfcinit:atom :      1.62s CPU      1.77s WALL (     316 calls)
     wfcinit:wfcr :   2078.78s CPU   2446.53s WALL (     316 calls)
     potinit      :      8.27s CPU     10.25s WALL (       1 calls)
     hinit0       :      7.07s CPU     10.18s WALL (       1 calls)

     Called by electrons:
     c_bands      :  90483.87s CPU 110909.93s WALL (      23 calls)
     sum_band     :  14660.65s CPU  18163.60s WALL (      23 calls)
     v_of_rho     :     46.74s CPU     58.94s WALL (      24 calls)
     v_h          :      3.43s CPU      3.98s WALL (      24 calls)
     v_xc         :     47.86s CPU     59.81s WALL (      26 calls)
     newd         :     49.89s CPU     72.96s WALL (      24 calls)
     PAW_pot      :     23.00s CPU     28.97s WALL (      24 calls)
     mix_rho      :     27.36s CPU     34.76s WALL (      23 calls)

     Called by c_bands:
     init_us_2    :    126.34s CPU    147.13s WALL (   15484 calls)
     cegterg      :  89736.13s CPU 109976.09s WALL (    7268 calls)

     Called by sum_band:
     sum_band:wei :      0.37s CPU      0.44s WALL (      23 calls)
     sum_band:loo :  14532.84s CPU  17990.34s WALL (      23 calls)
     sum_band:buf :     33.73s CPU     35.95s WALL (    7268 calls)
     sum_band:ini :     56.81s CPU     67.18s WALL (    7268 calls)
     sum_band:cal :   1248.83s CPU   1505.58s WALL (    7268 calls)
     sum_band:bec :      3.90s CPU      4.04s WALL (    7268 calls)
     addusdens    :    113.00s CPU    154.59s WALL (      23 calls)
     addusd:skk   :      0.69s CPU      0.89s WALL (      69 calls)
     addusd:dgemm :     35.54s CPU     57.88s WALL (     138 calls)
     addusd:qvan2 :     74.94s CPU     91.38s WALL (     138 calls)

     Called by *egterg:
     cdiaghg      :   2757.56s CPU   3417.39s WALL (   32978 calls)
     cegterg:over :   4531.76s CPU   5451.43s WALL (   25710 calls)
     cegterg:upda :    931.23s CPU   1137.79s WALL (   25710 calls)
     cegterg:last :   2210.73s CPU   2681.68s WALL (   14677 calls)
     h_psi        :  75833.77s CPU  93070.40s WALL (   33294 calls)
     s_psi        :   1901.90s CPU   2315.57s WALL (   33294 calls)
     g_psi        :     17.00s CPU     20.56s WALL (   25710 calls)

     Called by h_psi:
     h_psi:calbec :   3905.62s CPU   4694.51s WALL (   33294 calls)
     vloc_psi     :  69917.21s CPU  85883.24s WALL (   33294 calls)
     add_vuspsi   :   1949.66s CPU   2415.88s WALL (   33294 calls)

     General routines
     calbec       :   5538.43s CPU   6634.75s WALL (   42142 calls)
     fft          :     55.35s CPU     70.03s WALL (     638 calls)
     ffts         :      5.94s CPU      7.54s WALL (      94 calls)
     fftw         :  82816.22s CPU 101964.73s WALL ( 4897570 calls)
     interpolate  :      7.05s CPU      8.81s WALL (      48 calls)

     Parallel routines
     fft_scatt_xy :    390.05s CPU    411.01s WALL ( 4898302 calls)
     fft_scatt_yz :  80167.68s CPU  99224.04s WALL ( 4898302 calls)

     PAW routines
     PAW_pot      :     23.00s CPU     28.97s WALL (      24 calls)
     PAW_symme    :      3.25s CPU      3.94s WALL (      47 calls)

     PWSCF        :   1d 6h 9m CPU   1d12h58m WALL


   This run was terminated on:  21:29:43  21Dec2022            

=------------------------------------------------------------------------------=
   JOB DONE.
=------------------------------------------------------------------------------=
Note: The following floating-point exceptions are signalling: IEEE_UNDERFLOW_FLAG IEEE_DENORMAL
Note: The following floating-point exceptions are signalling: IEEE_DENORMAL
Note: The following floating-point exceptions are signalling: IEEE_DENORMAL
Note: The following floating-point exceptions are signalling: IEEE_DENORMAL
Note: The following floating-point exceptions are signalling: IEEE_DENORMAL
Note: The following floating-point exceptions are signalling: IEEE_DENORMAL
Note: The following floating-point exceptions are signalling: IEEE_INVALID_FLAG IEEE_DENORMAL
Note: The following floating-point exceptions are signalling: IEEE_DENORMAL
Note: The following floating-point exceptions are signalling: IEEE_DENORMAL
Note: The following floating-point exceptions are signalling: IEEE_DENORMAL
