
     Program PWSCF v.6.7MaX starts on 20Dec2022 at  4:31:26 

     This program is part of the open-source Quantum ESPRESSO suite
     for quantum simulation of materials; please cite
         "P. Giannozzi et al., J. Phys.:Condens. Matter 21 395502 (2009);
         "P. Giannozzi et al., J. Phys.:Condens. Matter 29 465901 (2017);
          URL http://www.quantum-espresso.org", 
     in publications or presentations arising from this work. More details at
     http://www.quantum-espresso.org/quote

     Parallel version (MPI), running on    12 processors

     MPI processes distributed on     1 nodes
     R & G space division:  proc/nbgrp/npool/nimage =      12
     Reading input from scale_2dab-00.in

     Current dimensions of program PWSCF are:
     Max number of different atomic species (ntypx) = 10
     Max number of k-points (npk) =  40000
     Max angular momentum in pseudopotentials (lmaxx) =  3
     Message from routine read_pp_mesh:
     mesh size missing, using the one in header
     file Fe.pbe-spn-kjpaw_psl.0.2.1.UPF: wavefunction(s)  3D renormalized
     file O.pbe-n-kjpaw_psl.0.1.UPF: wavefunction(s)  2P renormalized

     Subspace diagonalization in iterative solution of the eigenvalue problem:
     a serial algorithm will be used

     Message from routine setup:
     using ibrav=0 with symmetry is DISCOURAGED, use correct ibrav instead

     Parallelization info
     --------------------
     sticks:   dense  smooth     PW     G-vecs:    dense   smooth      PW
     Min        1493     553    149                97373    21957    3096
     Max        1495     554    151                97374    21960    3097
     Sum       17927    6645   1805              1168479   263495   37159



     bravais-lattice index     =            0
     lattice parameter (alat)  =      18.6818  a.u.
     unit-cell volume          =    1949.7229 (a.u.)^3
     number of atoms/cell      =           25
     number of atomic types    =            4
     number of electrons       =       189.00
     number of Kohn-Sham states=          114
     kinetic-energy cutoff     =     100.0000  Ry
     charge density cutoff     =    1080.0000  Ry
     scf convergence threshold =      2.0E-10
     mixing beta               =       0.4000
     number of iterations used =            8  plain     mixing
     Exchange-correlation= PBE
                           (   1   4   3   4   0   0   0)

     celldm(1)=  18.681804  celldm(2)=   0.000000  celldm(3)=   0.000000
     celldm(4)=   0.000000  celldm(5)=   0.000000  celldm(6)=   0.000000

     crystal axes: (cart. coord. in units of alat)
               a(1) = (   1.000000   0.000000   0.000000 )  
               a(2) = (   0.000000   0.597590   0.000000 )  
               a(3) = (   0.000000   0.000000   0.500395 )  

     reciprocal axes: (cart. coord. in units 2 pi/alat)
               b(1) = (  1.000000  0.000000  0.000000 )  
               b(2) = (  0.000000  1.673388  0.000000 )  
               b(3) = (  0.000000  0.000000  1.998420 )  


     PseudoPot. # 1 for Fe read from file:
     /opt/QEpot/SSSP_precision_pseudos/Fe.pbe-spn-kjpaw_psl.0.2.1.UPF
     MD5 check sum: e86618425769142926afa95317d90200
     Pseudo is Projector augmented-wave + core cor, Zval = 16.0
     Generated using "atomic" code by A. Dal Corso  v.5.0.99 svn rev. 10869
     Shape of augmentation charge: PSQ
     Using radial grid of 1191 points,  6 beta functions with: 
                l(1) =   0
                l(2) =   0
                l(3) =   1
                l(4) =   1
                l(5) =   2
                l(6) =   2
     Q(r) pseudized with 0 coefficients 


     PseudoPot. # 2 for Na read from file:
     /opt/QEpot/SSSP_precision_pseudos/Na_ONCV_PBE-1.0.oncvpsp.upf
     MD5 check sum: 24a298df0a6742ae313db96548fdb2a4
     Pseudo is Norm-conserving, Zval =  9.0
     Generated using ONCVPSP code by D. R. Hamann
     Using radial grid of 1992 points,  4 beta functions with: 
                l(1) =   0
                l(2) =   0
                l(3) =   1
                l(4) =   1

     PseudoPot. # 3 for O  read from file:
     /opt/QEpot/SSSP_precision_pseudos/O.pbe-n-kjpaw_psl.0.1.UPF
     MD5 check sum: 0234752ac141de4415c5fc33072bef88
     Pseudo is Projector augmented-wave + core cor, Zval =  6.0
     Generated using "atomic" code by A. Dal Corso  v.5.0.99 svn rev. 10869
     Shape of augmentation charge: BESSEL
     Using radial grid of 1095 points,  4 beta functions with: 
                l(1) =   0
                l(2) =   0
                l(3) =   1
                l(4) =   1
     Q(r) pseudized with 0 coefficients 


     PseudoPot. # 4 for P  read from file:
     /opt/QEpot/SSSP_precision_pseudos/P.pbe-n-rrkjus_psl.1.0.0.UPF
     MD5 check sum: 8b930f418f0a4573dca56cd030ffe088
     Pseudo is Ultrasoft + core correction, Zval =  5.0
     Generated using "atomic" code by A. Dal Corso  v.5.1
     Using radial grid of 1147 points,  6 beta functions with: 
                l(1) =   0
                l(2) =   0
                l(3) =   1
                l(4) =   1
                l(5) =   2
                l(6) =   2
     Q(r) pseudized with 0 coefficients 


     atomic species   valence    mass     pseudopotential
        Fe            16.00    55.84500     Fe( 1.00)
        Na             9.00    22.98977     Na( 1.00)
        O              6.00    15.99940     O ( 1.00)
        P              5.00    30.97376     P ( 1.00)

     Starting magnetic structure 
     atomic species   magnetization
        Fe           0.312
        Na           0.000
        O            0.000
        P            0.000

      2 Sym. Ops., with inversion, found


                                    s                        frac. trans.

      isym =  1     identity                                     

 cryst.   s( 1) = (     1          0          0      )
                  (     0          1          0      )
                  (     0          0          1      )

 cart.    s( 1) = (  1.0000000  0.0000000  0.0000000 )
                  (  0.0000000  1.0000000  0.0000000 )
                  (  0.0000000  0.0000000  1.0000000 )


      isym =  2     inversion                                    

 cryst.   s( 2) = (    -1          0          0      )
                  (     0         -1          0      )
                  (     0          0         -1      )

 cart.    s( 2) = ( -1.0000000  0.0000000  0.0000000 )
                  (  0.0000000 -1.0000000  0.0000000 )
                  (  0.0000000  0.0000000 -1.0000000 )


   Cartesian axes

     site n.     atom                  positions (alat units)
         1           Na  tau(   1) = (   0.5000030   0.2987962   0.2501991  )
         2           Fe  tau(   2) = (   0.2766340   0.4509067   0.4981645  )
         3           Fe  tau(   3) = (   0.2132450   0.1472796   0.2452207  )
         4           Fe  tau(   4) = (   0.7233720   0.1466862   0.0022338  )
         5           Fe  tau(   5) = (   0.7867600   0.4503127   0.2551776  )
         6           P   tau(   6) = (   0.1084050   0.4475052   0.2227244  )
         7           P   tau(   7) = (   0.3919000   0.1469754   0.4730401  )
         8           P   tau(   8) = (   0.8916010   0.1500877   0.2776743  )
         9           P   tau(   9) = (   0.6081070   0.4506175   0.0273561  )
        10           O   tau(  10) = (   0.1318760   0.4471825   0.3765669  )
        11           O   tau(  11) = (   0.3711480   0.1517090   0.1272815  )
        12           O   tau(  12) = (   0.8681290   0.1504104   0.1238308  )
        13           O   tau(  13) = (   0.6288580   0.4458840   0.3731182  )
        14           O   tau(  14) = (   0.4620270   0.4452021   0.0614370  )
        15           O   tau(  15) = (   0.0373160   0.1503453   0.3081684  )
        16           O   tau(  16) = (   0.5379780   0.1523908   0.4389612  )
        17           O   tau(  17) = (   0.9626900   0.4472477   0.1922298  )
        18           O   tau(  18) = (   0.1786770   0.5646908   0.1519360  )
        19           O   tau(  19) = (   0.3223210   0.0298072   0.4045956  )
        20           O   tau(  20) = (   0.8194080   0.2651781   0.3493199  )
        21           O   tau(  21) = (   0.6766380   0.3344526   0.1024279  )
        22           O   tau(  22) = (   0.8213290   0.0329027   0.3484622  )
        23           O   tau(  23) = (   0.6776850   0.5677863   0.0958027  )
        24           O   tau(  24) = (   0.1805980   0.3324148   0.1510783  )
        25           O   tau(  25) = (   0.3233680   0.2631404   0.3979709  )

   Crystallographic axes

     site n.     atom                  positions (cryst. coord.)
         1           Na  tau(   1) = (  0.5000030  0.5000020  0.5000030  )
         2           Fe  tau(   2) = (  0.2766340  0.7545420  0.9955420  )
         3           Fe  tau(   3) = (  0.2132450  0.2464560  0.4900540  )
         4           Fe  tau(   4) = (  0.7233720  0.2454630  0.0044640  )
         5           Fe  tau(   5) = (  0.7867600  0.7535480  0.5099520  )
         6           P   tau(   6) = (  0.1084050  0.7488500  0.4450970  )
         7           P   tau(   7) = (  0.3919000  0.2459470  0.9453330  )
         8           P   tau(   8) = (  0.8916010  0.2511550  0.5549100  )
         9           P   tau(   9) = (  0.6081070  0.7540580  0.0546690  )
        10           O   tau(  10) = (  0.1318760  0.7483100  0.7525390  )
        11           O   tau(  11) = (  0.3711480  0.2538680  0.2543620  )
        12           O   tau(  12) = (  0.8681290  0.2516950  0.2474660  )
        13           O   tau(  13) = (  0.6288580  0.7461370  0.7456470  )
        14           O   tau(  14) = (  0.4620270  0.7449960  0.1227770  )
        15           O   tau(  15) = (  0.0373160  0.2515860  0.6158500  )
        16           O   tau(  16) = (  0.5379780  0.2550090  0.8772290  )
        17           O   tau(  17) = (  0.9626900  0.7484190  0.3841560  )
        18           O   tau(  18) = (  0.1786770  0.9449470  0.3036320  )
        19           O   tau(  19) = (  0.3223210  0.0498790  0.8085520  )
        20           O   tau(  20) = (  0.8194080  0.4437460  0.6980880  )
        21           O   tau(  21) = (  0.6766380  0.5596690  0.2046940  )
        22           O   tau(  22) = (  0.8213290  0.0550590  0.6963740  )
        23           O   tau(  23) = (  0.6776850  0.9501270  0.1914540  )
        24           O   tau(  24) = (  0.1805980  0.5562590  0.3019180  )
        25           O   tau(  25) = (  0.3233680  0.4403360  0.7953130  )

     number of k points=   158  Marzari-Vanderbilt smearing, width (Ry)=  0.0073
                       cart. coord. in units 2pi/alat
        k(    1) = (   0.0000000   0.0000000   0.0000000), wk =   0.0031746
        k(    2) = (   0.0000000   0.0000000   0.2220467), wk =   0.0063492
        k(    3) = (   0.0000000   0.0000000   0.4440934), wk =   0.0063492
        k(    4) = (   0.0000000   0.0000000   0.6661401), wk =   0.0063492
        k(    5) = (   0.0000000   0.0000000   0.8881868), wk =   0.0063492
        k(    6) = (   0.0000000   0.2390555   0.0000000), wk =   0.0063492
        k(    7) = (   0.0000000   0.2390555   0.2220467), wk =   0.0063492
        k(    8) = (   0.0000000   0.2390555   0.4440934), wk =   0.0063492
        k(    9) = (   0.0000000   0.2390555   0.6661401), wk =   0.0063492
        k(   10) = (   0.0000000   0.2390555   0.8881868), wk =   0.0063492
        k(   11) = (   0.0000000   0.4781110   0.0000000), wk =   0.0063492
        k(   12) = (   0.0000000   0.4781110   0.2220467), wk =   0.0063492
        k(   13) = (   0.0000000   0.4781110   0.4440934), wk =   0.0063492
        k(   14) = (   0.0000000   0.4781110   0.6661401), wk =   0.0063492
        k(   15) = (   0.0000000   0.4781110   0.8881868), wk =   0.0063492
        k(   16) = (   0.0000000   0.7171664   0.0000000), wk =   0.0063492
        k(   17) = (   0.0000000   0.7171664   0.2220467), wk =   0.0063492
        k(   18) = (   0.0000000   0.7171664   0.4440934), wk =   0.0063492
        k(   19) = (   0.0000000   0.7171664   0.6661401), wk =   0.0063492
        k(   20) = (   0.0000000   0.7171664   0.8881868), wk =   0.0063492
        k(   21) = (   0.2000000   0.0000000   0.0000000), wk =   0.0063492
        k(   22) = (   0.2000000   0.0000000   0.2220467), wk =   0.0063492
        k(   23) = (   0.2000000   0.0000000   0.4440934), wk =   0.0063492
        k(   24) = (   0.2000000   0.0000000   0.6661401), wk =   0.0063492
        k(   25) = (   0.2000000   0.0000000   0.8881868), wk =   0.0063492
        k(   26) = (   0.2000000   0.2390555   0.0000000), wk =   0.0063492
        k(   27) = (   0.2000000   0.2390555   0.2220467), wk =   0.0063492
        k(   28) = (   0.2000000   0.2390555   0.4440934), wk =   0.0063492
        k(   29) = (   0.2000000   0.2390555   0.6661401), wk =   0.0063492
        k(   30) = (   0.2000000   0.2390555   0.8881868), wk =   0.0063492
        k(   31) = (   0.2000000   0.4781110   0.0000000), wk =   0.0063492
        k(   32) = (   0.2000000   0.4781110   0.2220467), wk =   0.0063492
        k(   33) = (   0.2000000   0.4781110   0.4440934), wk =   0.0063492
        k(   34) = (   0.2000000   0.4781110   0.6661401), wk =   0.0063492
        k(   35) = (   0.2000000   0.4781110   0.8881868), wk =   0.0063492
        k(   36) = (   0.2000000   0.7171664   0.0000000), wk =   0.0063492
        k(   37) = (   0.2000000   0.7171664   0.2220467), wk =   0.0063492
        k(   38) = (   0.2000000   0.7171664   0.4440934), wk =   0.0063492
        k(   39) = (   0.2000000   0.7171664   0.6661401), wk =   0.0063492
        k(   40) = (   0.2000000   0.7171664   0.8881868), wk =   0.0063492
        k(   41) = (   0.4000000   0.0000000   0.0000000), wk =   0.0063492
        k(   42) = (   0.4000000   0.0000000   0.2220467), wk =   0.0063492
        k(   43) = (   0.4000000   0.0000000   0.4440934), wk =   0.0063492
        k(   44) = (   0.4000000   0.0000000   0.6661401), wk =   0.0063492
        k(   45) = (   0.4000000   0.0000000   0.8881868), wk =   0.0063492
        k(   46) = (   0.4000000   0.2390555   0.0000000), wk =   0.0063492
        k(   47) = (   0.4000000   0.2390555   0.2220467), wk =   0.0063492
        k(   48) = (   0.4000000   0.2390555   0.4440934), wk =   0.0063492
        k(   49) = (   0.4000000   0.2390555   0.6661401), wk =   0.0063492
        k(   50) = (   0.4000000   0.2390555   0.8881868), wk =   0.0063492
        k(   51) = (   0.4000000   0.4781110   0.0000000), wk =   0.0063492
        k(   52) = (   0.4000000   0.4781110   0.2220467), wk =   0.0063492
        k(   53) = (   0.4000000   0.4781110   0.4440934), wk =   0.0063492
        k(   54) = (   0.4000000   0.4781110   0.6661401), wk =   0.0063492
        k(   55) = (   0.4000000   0.4781110   0.8881868), wk =   0.0063492
        k(   56) = (   0.4000000   0.7171664   0.0000000), wk =   0.0063492
        k(   57) = (   0.4000000   0.7171664   0.2220467), wk =   0.0063492
        k(   58) = (   0.4000000   0.7171664   0.4440934), wk =   0.0063492
        k(   59) = (   0.4000000   0.7171664   0.6661401), wk =   0.0063492
        k(   60) = (   0.4000000   0.7171664   0.8881868), wk =   0.0063492
        k(   61) = (   0.0000000   0.2390555  -0.2220467), wk =   0.0063492
        k(   62) = (   0.0000000   0.2390555  -0.4440934), wk =   0.0063492
        k(   63) = (   0.0000000   0.2390555  -0.6661401), wk =   0.0063492
        k(   64) = (   0.0000000   0.2390555  -0.8881868), wk =   0.0063492
        k(   65) = (   0.0000000   0.4781110  -0.2220467), wk =   0.0063492
        k(   66) = (   0.0000000   0.4781110  -0.4440934), wk =   0.0063492
        k(   67) = (   0.0000000   0.4781110  -0.6661401), wk =   0.0063492
        k(   68) = (   0.0000000   0.4781110  -0.8881868), wk =   0.0063492
        k(   69) = (   0.0000000   0.7171664  -0.2220467), wk =   0.0063492
        k(   70) = (   0.0000000   0.7171664  -0.4440934), wk =   0.0063492
        k(   71) = (   0.0000000   0.7171664  -0.6661401), wk =   0.0063492
        k(   72) = (   0.0000000   0.7171664  -0.8881868), wk =   0.0063492
        k(   73) = (   0.2000000   0.0000000  -0.2220467), wk =   0.0063492
        k(   74) = (   0.2000000   0.0000000  -0.4440934), wk =   0.0063492
        k(   75) = (   0.2000000   0.0000000  -0.6661401), wk =   0.0063492
        k(   76) = (   0.2000000   0.0000000  -0.8881868), wk =   0.0063492
        k(   77) = (  -0.2000000   0.2390555   0.0000000), wk =   0.0063492
        k(   78) = (  -0.2000000   0.2390555  -0.2220467), wk =   0.0063492
        k(   79) = (   0.2000000  -0.2390555  -0.2220467), wk =   0.0063492
        k(   80) = (  -0.2000000  -0.2390555   0.2220467), wk =   0.0063492
        k(   81) = (  -0.2000000   0.2390555  -0.4440934), wk =   0.0063492
        k(   82) = (   0.2000000  -0.2390555  -0.4440934), wk =   0.0063492
        k(   83) = (  -0.2000000  -0.2390555   0.4440934), wk =   0.0063492
        k(   84) = (  -0.2000000   0.2390555  -0.6661401), wk =   0.0063492
        k(   85) = (   0.2000000  -0.2390555  -0.6661401), wk =   0.0063492
        k(   86) = (  -0.2000000  -0.2390555   0.6661401), wk =   0.0063492
        k(   87) = (  -0.2000000   0.2390555  -0.8881868), wk =   0.0063492
        k(   88) = (   0.2000000  -0.2390555  -0.8881868), wk =   0.0063492
        k(   89) = (  -0.2000000  -0.2390555   0.8881868), wk =   0.0063492
        k(   90) = (  -0.2000000   0.4781110   0.0000000), wk =   0.0063492
        k(   91) = (  -0.2000000   0.4781110  -0.2220467), wk =   0.0063492
        k(   92) = (   0.2000000  -0.4781110  -0.2220467), wk =   0.0063492
        k(   93) = (  -0.2000000  -0.4781110   0.2220467), wk =   0.0063492
        k(   94) = (  -0.2000000   0.4781110  -0.4440934), wk =   0.0063492
        k(   95) = (   0.2000000  -0.4781110  -0.4440934), wk =   0.0063492
        k(   96) = (  -0.2000000  -0.4781110   0.4440934), wk =   0.0063492
        k(   97) = (  -0.2000000   0.4781110  -0.6661401), wk =   0.0063492
        k(   98) = (   0.2000000  -0.4781110  -0.6661401), wk =   0.0063492
        k(   99) = (  -0.2000000  -0.4781110   0.6661401), wk =   0.0063492
        k(  100) = (  -0.2000000   0.4781110  -0.8881868), wk =   0.0063492
        k(  101) = (   0.2000000  -0.4781110  -0.8881868), wk =   0.0063492
        k(  102) = (  -0.2000000  -0.4781110   0.8881868), wk =   0.0063492
        k(  103) = (  -0.2000000   0.7171664   0.0000000), wk =   0.0063492
        k(  104) = (  -0.2000000   0.7171664  -0.2220467), wk =   0.0063492
        k(  105) = (   0.2000000  -0.7171664  -0.2220467), wk =   0.0063492
        k(  106) = (  -0.2000000  -0.7171664   0.2220467), wk =   0.0063492
        k(  107) = (  -0.2000000   0.7171664  -0.4440934), wk =   0.0063492
        k(  108) = (   0.2000000  -0.7171664  -0.4440934), wk =   0.0063492
        k(  109) = (  -0.2000000  -0.7171664   0.4440934), wk =   0.0063492
        k(  110) = (  -0.2000000   0.7171664  -0.6661401), wk =   0.0063492
        k(  111) = (   0.2000000  -0.7171664  -0.6661401), wk =   0.0063492
        k(  112) = (  -0.2000000  -0.7171664   0.6661401), wk =   0.0063492
        k(  113) = (  -0.2000000   0.7171664  -0.8881868), wk =   0.0063492
        k(  114) = (   0.2000000  -0.7171664  -0.8881868), wk =   0.0063492
        k(  115) = (  -0.2000000  -0.7171664   0.8881868), wk =   0.0063492
        k(  116) = (   0.4000000   0.0000000  -0.2220467), wk =   0.0063492
        k(  117) = (   0.4000000   0.0000000  -0.4440934), wk =   0.0063492
        k(  118) = (   0.4000000   0.0000000  -0.6661401), wk =   0.0063492
        k(  119) = (   0.4000000   0.0000000  -0.8881868), wk =   0.0063492
        k(  120) = (  -0.4000000   0.2390555   0.0000000), wk =   0.0063492
        k(  121) = (  -0.4000000   0.2390555  -0.2220467), wk =   0.0063492
        k(  122) = (   0.4000000  -0.2390555  -0.2220467), wk =   0.0063492
        k(  123) = (  -0.4000000  -0.2390555   0.2220467), wk =   0.0063492
        k(  124) = (  -0.4000000   0.2390555  -0.4440934), wk =   0.0063492
        k(  125) = (   0.4000000  -0.2390555  -0.4440934), wk =   0.0063492
        k(  126) = (  -0.4000000  -0.2390555   0.4440934), wk =   0.0063492
        k(  127) = (  -0.4000000   0.2390555  -0.6661401), wk =   0.0063492
        k(  128) = (   0.4000000  -0.2390555  -0.6661401), wk =   0.0063492
        k(  129) = (  -0.4000000  -0.2390555   0.6661401), wk =   0.0063492
        k(  130) = (  -0.4000000   0.2390555  -0.8881868), wk =   0.0063492
        k(  131) = (   0.4000000  -0.2390555  -0.8881868), wk =   0.0063492
        k(  132) = (  -0.4000000  -0.2390555   0.8881868), wk =   0.0063492
        k(  133) = (  -0.4000000   0.4781110   0.0000000), wk =   0.0063492
        k(  134) = (  -0.4000000   0.4781110  -0.2220467), wk =   0.0063492
        k(  135) = (   0.4000000  -0.4781110  -0.2220467), wk =   0.0063492
        k(  136) = (  -0.4000000  -0.4781110   0.2220467), wk =   0.0063492
        k(  137) = (  -0.4000000   0.4781110  -0.4440934), wk =   0.0063492
        k(  138) = (   0.4000000  -0.4781110  -0.4440934), wk =   0.0063492
        k(  139) = (  -0.4000000  -0.4781110   0.4440934), wk =   0.0063492
        k(  140) = (  -0.4000000   0.4781110  -0.6661401), wk =   0.0063492
        k(  141) = (   0.4000000  -0.4781110  -0.6661401), wk =   0.0063492
        k(  142) = (  -0.4000000  -0.4781110   0.6661401), wk =   0.0063492
        k(  143) = (  -0.4000000   0.4781110  -0.8881868), wk =   0.0063492
        k(  144) = (   0.4000000  -0.4781110  -0.8881868), wk =   0.0063492
        k(  145) = (  -0.4000000  -0.4781110   0.8881868), wk =   0.0063492
        k(  146) = (  -0.4000000   0.7171664   0.0000000), wk =   0.0063492
        k(  147) = (  -0.4000000   0.7171664  -0.2220467), wk =   0.0063492
        k(  148) = (   0.4000000  -0.7171664  -0.2220467), wk =   0.0063492
        k(  149) = (  -0.4000000  -0.7171664   0.2220467), wk =   0.0063492
        k(  150) = (  -0.4000000   0.7171664  -0.4440934), wk =   0.0063492
        k(  151) = (   0.4000000  -0.7171664  -0.4440934), wk =   0.0063492
        k(  152) = (  -0.4000000  -0.7171664   0.4440934), wk =   0.0063492
        k(  153) = (  -0.4000000   0.7171664  -0.6661401), wk =   0.0063492
        k(  154) = (   0.4000000  -0.7171664  -0.6661401), wk =   0.0063492
        k(  155) = (  -0.4000000  -0.7171664   0.6661401), wk =   0.0063492
        k(  156) = (  -0.4000000   0.7171664  -0.8881868), wk =   0.0063492
        k(  157) = (   0.4000000  -0.7171664  -0.8881868), wk =   0.0063492
        k(  158) = (  -0.4000000  -0.7171664   0.8881868), wk =   0.0063492

                       cryst. coord.
        k(    1) = (   0.0000000   0.0000000   0.0000000), wk =   0.0031746
        k(    2) = (   0.0000000   0.0000000   0.1111111), wk =   0.0063492
        k(    3) = (   0.0000000   0.0000000   0.2222222), wk =   0.0063492
        k(    4) = (   0.0000000   0.0000000   0.3333333), wk =   0.0063492
        k(    5) = (   0.0000000   0.0000000   0.4444444), wk =   0.0063492
        k(    6) = (   0.0000000   0.1428571   0.0000000), wk =   0.0063492
        k(    7) = (   0.0000000   0.1428571   0.1111111), wk =   0.0063492
        k(    8) = (   0.0000000   0.1428571   0.2222222), wk =   0.0063492
        k(    9) = (   0.0000000   0.1428571   0.3333333), wk =   0.0063492
        k(   10) = (   0.0000000   0.1428571   0.4444444), wk =   0.0063492
        k(   11) = (   0.0000000   0.2857143   0.0000000), wk =   0.0063492
        k(   12) = (   0.0000000   0.2857143   0.1111111), wk =   0.0063492
        k(   13) = (   0.0000000   0.2857143   0.2222222), wk =   0.0063492
        k(   14) = (   0.0000000   0.2857143   0.3333333), wk =   0.0063492
        k(   15) = (   0.0000000   0.2857143   0.4444444), wk =   0.0063492
        k(   16) = (   0.0000000   0.4285714   0.0000000), wk =   0.0063492
        k(   17) = (   0.0000000   0.4285714   0.1111111), wk =   0.0063492
        k(   18) = (   0.0000000   0.4285714   0.2222222), wk =   0.0063492
        k(   19) = (   0.0000000   0.4285714   0.3333333), wk =   0.0063492
        k(   20) = (   0.0000000   0.4285714   0.4444444), wk =   0.0063492
        k(   21) = (   0.2000000   0.0000000   0.0000000), wk =   0.0063492
        k(   22) = (   0.2000000   0.0000000   0.1111111), wk =   0.0063492
        k(   23) = (   0.2000000   0.0000000   0.2222222), wk =   0.0063492
        k(   24) = (   0.2000000   0.0000000   0.3333333), wk =   0.0063492
        k(   25) = (   0.2000000   0.0000000   0.4444444), wk =   0.0063492
        k(   26) = (   0.2000000   0.1428571   0.0000000), wk =   0.0063492
        k(   27) = (   0.2000000   0.1428571   0.1111111), wk =   0.0063492
        k(   28) = (   0.2000000   0.1428571   0.2222222), wk =   0.0063492
        k(   29) = (   0.2000000   0.1428571   0.3333333), wk =   0.0063492
        k(   30) = (   0.2000000   0.1428571   0.4444444), wk =   0.0063492
        k(   31) = (   0.2000000   0.2857143   0.0000000), wk =   0.0063492
        k(   32) = (   0.2000000   0.2857143   0.1111111), wk =   0.0063492
        k(   33) = (   0.2000000   0.2857143   0.2222222), wk =   0.0063492
        k(   34) = (   0.2000000   0.2857143   0.3333333), wk =   0.0063492
        k(   35) = (   0.2000000   0.2857143   0.4444444), wk =   0.0063492
        k(   36) = (   0.2000000   0.4285714   0.0000000), wk =   0.0063492
        k(   37) = (   0.2000000   0.4285714   0.1111111), wk =   0.0063492
        k(   38) = (   0.2000000   0.4285714   0.2222222), wk =   0.0063492
        k(   39) = (   0.2000000   0.4285714   0.3333333), wk =   0.0063492
        k(   40) = (   0.2000000   0.4285714   0.4444444), wk =   0.0063492
        k(   41) = (   0.4000000   0.0000000   0.0000000), wk =   0.0063492
        k(   42) = (   0.4000000   0.0000000   0.1111111), wk =   0.0063492
        k(   43) = (   0.4000000   0.0000000   0.2222222), wk =   0.0063492
        k(   44) = (   0.4000000   0.0000000   0.3333333), wk =   0.0063492
        k(   45) = (   0.4000000   0.0000000   0.4444444), wk =   0.0063492
        k(   46) = (   0.4000000   0.1428571   0.0000000), wk =   0.0063492
        k(   47) = (   0.4000000   0.1428571   0.1111111), wk =   0.0063492
        k(   48) = (   0.4000000   0.1428571   0.2222222), wk =   0.0063492
        k(   49) = (   0.4000000   0.1428571   0.3333333), wk =   0.0063492
        k(   50) = (   0.4000000   0.1428571   0.4444444), wk =   0.0063492
        k(   51) = (   0.4000000   0.2857143   0.0000000), wk =   0.0063492
        k(   52) = (   0.4000000   0.2857143   0.1111111), wk =   0.0063492
        k(   53) = (   0.4000000   0.2857143   0.2222222), wk =   0.0063492
        k(   54) = (   0.4000000   0.2857143   0.3333333), wk =   0.0063492
        k(   55) = (   0.4000000   0.2857143   0.4444444), wk =   0.0063492
        k(   56) = (   0.4000000   0.4285714   0.0000000), wk =   0.0063492
        k(   57) = (   0.4000000   0.4285714   0.1111111), wk =   0.0063492
        k(   58) = (   0.4000000   0.4285714   0.2222222), wk =   0.0063492
        k(   59) = (   0.4000000   0.4285714   0.3333333), wk =   0.0063492
        k(   60) = (   0.4000000   0.4285714   0.4444444), wk =   0.0063492
        k(   61) = (   0.0000000   0.1428571  -0.1111111), wk =   0.0063492
        k(   62) = (   0.0000000   0.1428571  -0.2222222), wk =   0.0063492
        k(   63) = (   0.0000000   0.1428571  -0.3333333), wk =   0.0063492
        k(   64) = (   0.0000000   0.1428571  -0.4444444), wk =   0.0063492
        k(   65) = (   0.0000000   0.2857143  -0.1111111), wk =   0.0063492
        k(   66) = (   0.0000000   0.2857143  -0.2222222), wk =   0.0063492
        k(   67) = (   0.0000000   0.2857143  -0.3333333), wk =   0.0063492
        k(   68) = (   0.0000000   0.2857143  -0.4444444), wk =   0.0063492
        k(   69) = (   0.0000000   0.4285714  -0.1111111), wk =   0.0063492
        k(   70) = (   0.0000000   0.4285714  -0.2222222), wk =   0.0063492
        k(   71) = (   0.0000000   0.4285714  -0.3333333), wk =   0.0063492
        k(   72) = (   0.0000000   0.4285714  -0.4444444), wk =   0.0063492
        k(   73) = (   0.2000000   0.0000000  -0.1111111), wk =   0.0063492
        k(   74) = (   0.2000000   0.0000000  -0.2222222), wk =   0.0063492
        k(   75) = (   0.2000000   0.0000000  -0.3333333), wk =   0.0063492
        k(   76) = (   0.2000000   0.0000000  -0.4444444), wk =   0.0063492
        k(   77) = (  -0.2000000   0.1428571   0.0000000), wk =   0.0063492
        k(   78) = (  -0.2000000   0.1428571  -0.1111111), wk =   0.0063492
        k(   79) = (   0.2000000  -0.1428571  -0.1111111), wk =   0.0063492
        k(   80) = (  -0.2000000  -0.1428571   0.1111111), wk =   0.0063492
        k(   81) = (  -0.2000000   0.1428571  -0.2222222), wk =   0.0063492
        k(   82) = (   0.2000000  -0.1428571  -0.2222222), wk =   0.0063492
        k(   83) = (  -0.2000000  -0.1428571   0.2222222), wk =   0.0063492
        k(   84) = (  -0.2000000   0.1428571  -0.3333333), wk =   0.0063492
        k(   85) = (   0.2000000  -0.1428571  -0.3333333), wk =   0.0063492
        k(   86) = (  -0.2000000  -0.1428571   0.3333333), wk =   0.0063492
        k(   87) = (  -0.2000000   0.1428571  -0.4444444), wk =   0.0063492
        k(   88) = (   0.2000000  -0.1428571  -0.4444444), wk =   0.0063492
        k(   89) = (  -0.2000000  -0.1428571   0.4444444), wk =   0.0063492
        k(   90) = (  -0.2000000   0.2857143   0.0000000), wk =   0.0063492
        k(   91) = (  -0.2000000   0.2857143  -0.1111111), wk =   0.0063492
        k(   92) = (   0.2000000  -0.2857143  -0.1111111), wk =   0.0063492
        k(   93) = (  -0.2000000  -0.2857143   0.1111111), wk =   0.0063492
        k(   94) = (  -0.2000000   0.2857143  -0.2222222), wk =   0.0063492
        k(   95) = (   0.2000000  -0.2857143  -0.2222222), wk =   0.0063492
        k(   96) = (  -0.2000000  -0.2857143   0.2222222), wk =   0.0063492
        k(   97) = (  -0.2000000   0.2857143  -0.3333333), wk =   0.0063492
        k(   98) = (   0.2000000  -0.2857143  -0.3333333), wk =   0.0063492
        k(   99) = (  -0.2000000  -0.2857143   0.3333333), wk =   0.0063492
        k(  100) = (  -0.2000000   0.2857143  -0.4444444), wk =   0.0063492
        k(  101) = (   0.2000000  -0.2857143  -0.4444444), wk =   0.0063492
        k(  102) = (  -0.2000000  -0.2857143   0.4444444), wk =   0.0063492
        k(  103) = (  -0.2000000   0.4285714   0.0000000), wk =   0.0063492
        k(  104) = (  -0.2000000   0.4285714  -0.1111111), wk =   0.0063492
        k(  105) = (   0.2000000  -0.4285714  -0.1111111), wk =   0.0063492
        k(  106) = (  -0.2000000  -0.4285714   0.1111111), wk =   0.0063492
        k(  107) = (  -0.2000000   0.4285714  -0.2222222), wk =   0.0063492
        k(  108) = (   0.2000000  -0.4285714  -0.2222222), wk =   0.0063492
        k(  109) = (  -0.2000000  -0.4285714   0.2222222), wk =   0.0063492
        k(  110) = (  -0.2000000   0.4285714  -0.3333333), wk =   0.0063492
        k(  111) = (   0.2000000  -0.4285714  -0.3333333), wk =   0.0063492
        k(  112) = (  -0.2000000  -0.4285714   0.3333333), wk =   0.0063492
        k(  113) = (  -0.2000000   0.4285714  -0.4444444), wk =   0.0063492
        k(  114) = (   0.2000000  -0.4285714  -0.4444444), wk =   0.0063492
        k(  115) = (  -0.2000000  -0.4285714   0.4444444), wk =   0.0063492
        k(  116) = (   0.4000000   0.0000000  -0.1111111), wk =   0.0063492
        k(  117) = (   0.4000000   0.0000000  -0.2222222), wk =   0.0063492
        k(  118) = (   0.4000000   0.0000000  -0.3333333), wk =   0.0063492
        k(  119) = (   0.4000000   0.0000000  -0.4444444), wk =   0.0063492
        k(  120) = (  -0.4000000   0.1428571   0.0000000), wk =   0.0063492
        k(  121) = (  -0.4000000   0.1428571  -0.1111111), wk =   0.0063492
        k(  122) = (   0.4000000  -0.1428571  -0.1111111), wk =   0.0063492
        k(  123) = (  -0.4000000  -0.1428571   0.1111111), wk =   0.0063492
        k(  124) = (  -0.4000000   0.1428571  -0.2222222), wk =   0.0063492
        k(  125) = (   0.4000000  -0.1428571  -0.2222222), wk =   0.0063492
        k(  126) = (  -0.4000000  -0.1428571   0.2222222), wk =   0.0063492
        k(  127) = (  -0.4000000   0.1428571  -0.3333333), wk =   0.0063492
        k(  128) = (   0.4000000  -0.1428571  -0.3333333), wk =   0.0063492
        k(  129) = (  -0.4000000  -0.1428571   0.3333333), wk =   0.0063492
        k(  130) = (  -0.4000000   0.1428571  -0.4444444), wk =   0.0063492
        k(  131) = (   0.4000000  -0.1428571  -0.4444444), wk =   0.0063492
        k(  132) = (  -0.4000000  -0.1428571   0.4444444), wk =   0.0063492
        k(  133) = (  -0.4000000   0.2857143   0.0000000), wk =   0.0063492
        k(  134) = (  -0.4000000   0.2857143  -0.1111111), wk =   0.0063492
        k(  135) = (   0.4000000  -0.2857143  -0.1111111), wk =   0.0063492
        k(  136) = (  -0.4000000  -0.2857143   0.1111111), wk =   0.0063492
        k(  137) = (  -0.4000000   0.2857143  -0.2222222), wk =   0.0063492
        k(  138) = (   0.4000000  -0.2857143  -0.2222222), wk =   0.0063492
        k(  139) = (  -0.4000000  -0.2857143   0.2222222), wk =   0.0063492
        k(  140) = (  -0.4000000   0.2857143  -0.3333333), wk =   0.0063492
        k(  141) = (   0.4000000  -0.2857143  -0.3333333), wk =   0.0063492
        k(  142) = (  -0.4000000  -0.2857143   0.3333333), wk =   0.0063492
        k(  143) = (  -0.4000000   0.2857143  -0.4444444), wk =   0.0063492
        k(  144) = (   0.4000000  -0.2857143  -0.4444444), wk =   0.0063492
        k(  145) = (  -0.4000000  -0.2857143   0.4444444), wk =   0.0063492
        k(  146) = (  -0.4000000   0.4285714   0.0000000), wk =   0.0063492
        k(  147) = (  -0.4000000   0.4285714  -0.1111111), wk =   0.0063492
        k(  148) = (   0.4000000  -0.4285714  -0.1111111), wk =   0.0063492
        k(  149) = (  -0.4000000  -0.4285714   0.1111111), wk =   0.0063492
        k(  150) = (  -0.4000000   0.4285714  -0.2222222), wk =   0.0063492
        k(  151) = (   0.4000000  -0.4285714  -0.2222222), wk =   0.0063492
        k(  152) = (  -0.4000000  -0.4285714   0.2222222), wk =   0.0063492
        k(  153) = (  -0.4000000   0.4285714  -0.3333333), wk =   0.0063492
        k(  154) = (   0.4000000  -0.4285714  -0.3333333), wk =   0.0063492
        k(  155) = (  -0.4000000  -0.4285714   0.3333333), wk =   0.0063492
        k(  156) = (  -0.4000000   0.4285714  -0.4444444), wk =   0.0063492
        k(  157) = (   0.4000000  -0.4285714  -0.4444444), wk =   0.0063492
        k(  158) = (  -0.4000000  -0.4285714   0.4444444), wk =   0.0063492

     Dense  grid:  1168479 G-vectors     FFT dimensions: ( 200, 120, 100)

     Smooth grid:   263495 G-vectors     FFT dimensions: ( 120,  72,  60)

     Dynamical RAM for                 wfc:       4.77 MB

     Dynamical RAM for     wfc (w. buffer):    1512.55 MB

     Dynamical RAM for           str. fact:       5.94 MB

     Dynamical RAM for           local pot:       0.00 MB

     Dynamical RAM for          nlocal pot:      11.72 MB

     Dynamical RAM for                qrad:      10.54 MB

     Dynamical RAM for          rho,v,vnew:      18.80 MB

     Dynamical RAM for               rhoin:       6.27 MB

     Dynamical RAM for            rho*nmix:      47.55 MB

     Dynamical RAM for           G-vectors:       5.74 MB

     Dynamical RAM for          h,s,v(r/c):       2.38 MB

     Dynamical RAM for          <psi|beta>:       0.49 MB

     Dynamical RAM for                 psi:       9.54 MB

     Dynamical RAM for                hpsi:       9.54 MB

     Dynamical RAM for                spsi:       9.54 MB

     Dynamical RAM for      wfcinit/wfcrot:      11.90 MB

     Dynamical RAM for           addusdens:     301.62 MB

     Dynamical RAM for          addusforce:     346.32 MB

     Dynamical RAM for         addusstress:     300.87 MB

     Estimated static dynamical RAM per process >       1.60 GB

     Estimated max dynamical RAM per process >       1.94 GB

     Estimated total dynamical RAM >      23.24 GB

     Check: negative core charge=   -0.000003
     Generating pointlists ...
     new r_m :   0.0771 (alat units)  1.4401 (a.u.) for type    1
     new r_m :   0.0953 (alat units)  1.7799 (a.u.) for type    2
     new r_m :   0.0614 (alat units)  1.1472 (a.u.) for type    3
     new r_m :   0.0614 (alat units)  1.1472 (a.u.) for type    4

     Initial potential from superposition of free atoms

     starting charge  188.99132, renormalised to  189.00000
     Starting wfcs are  137 randomized atomic wfcs
     Checking if some PAW data can be deallocated... 
       PAW data deallocated on   10 nodes for type:  1
       PAW data deallocated on    4 nodes for type:  3

     total cpu time spent up to now is     2497.0 secs

     Self-consistent Calculation

     iteration #  1     ecut=   100.00 Ry     beta= 0.40
     Davidson diagonalization with overlap
     ethr =  1.00E-02,  avg # of iterations =  3.8

     negative rho (up, down):  0.000E+00 2.072E-05

     total cpu time spent up to now is     9633.0 secs

     total energy              =   -2124.08823708 Ry
     estimated scf accuracy    <       6.55377027 Ry

     total magnetization       =    19.00 Bohr mag/cell
     absolute magnetization    =    19.00 Bohr mag/cell

     iteration #  2     ecut=   100.00 Ry     beta= 0.40
     Davidson diagonalization with overlap
     ethr =  3.47E-03,  avg # of iterations =  2.0

     negative rho (up, down):  0.000E+00 1.378E-05

     total cpu time spent up to now is    16174.1 secs

     total energy              =   -2124.49325985 Ry
     estimated scf accuracy    <       5.82245100 Ry

     total magnetization       =    15.00 Bohr mag/cell
     absolute magnetization    =    15.01 Bohr mag/cell

     iteration #  3     ecut=   100.00 Ry     beta= 0.40
     Davidson diagonalization with overlap
     ethr =  3.08E-03,  avg # of iterations =  2.0

     negative rho (up, down):  0.000E+00 1.553E-04

     total cpu time spent up to now is    21687.1 secs

     total energy              =   -2125.97391328 Ry
     estimated scf accuracy    <       1.12039785 Ry

     total magnetization       =    19.00 Bohr mag/cell
     absolute magnetization    =    19.00 Bohr mag/cell

     iteration #  4     ecut=   100.00 Ry     beta= 0.40
     Davidson diagonalization with overlap
     ethr =  5.93E-04,  avg # of iterations =  3.1

     negative rho (up, down):  0.000E+00 2.649E-04

     total cpu time spent up to now is    24263.4 secs

     total energy              =   -2125.98961731 Ry
     estimated scf accuracy    <       0.39387990 Ry

     total magnetization       =    19.00 Bohr mag/cell
     absolute magnetization    =    19.00 Bohr mag/cell

     iteration #  5     ecut=   100.00 Ry     beta= 0.40
     Davidson diagonalization with overlap
     c_bands:  1 eigenvalues not converged
     ethr =  2.08E-04,  avg # of iterations =  8.2

     negative rho (up, down):  0.000E+00 8.666E-04

     total cpu time spent up to now is    25261.7 secs

     total energy              =   -2125.98521334 Ry
     estimated scf accuracy    <       0.42619521 Ry

     total magnetization       =    19.00 Bohr mag/cell
     absolute magnetization    =    19.01 Bohr mag/cell

     iteration #  6     ecut=   100.00 Ry     beta= 0.40
     Davidson diagonalization with overlap
     ethr =  2.08E-04,  avg # of iterations =  3.2

     negative rho (up, down):  0.000E+00 9.931E-04

     total cpu time spent up to now is    26796.9 secs

     total energy              =   -2126.02126960 Ry
     estimated scf accuracy    <       0.14652755 Ry

     total magnetization       =    19.00 Bohr mag/cell
     absolute magnetization    =    19.01 Bohr mag/cell

     iteration #  7     ecut=   100.00 Ry     beta= 0.40
     Davidson diagonalization with overlap
     c_bands:  1 eigenvalues not converged
     ethr =  7.75E-05,  avg # of iterations =  5.4

     negative rho (up, down):  0.000E+00 1.080E-03

     total cpu time spent up to now is    31621.5 secs

     total energy              =   -2126.03546162 Ry
     estimated scf accuracy    <       0.02219662 Ry

     total magnetization       =    19.00 Bohr mag/cell
     absolute magnetization    =    19.02 Bohr mag/cell

     iteration #  8     ecut=   100.00 Ry     beta= 0.40
     Davidson diagonalization with overlap
     c_bands:  1 eigenvalues not converged
     c_bands:  1 eigenvalues not converged
     c_bands:  2 eigenvalues not converged
     c_bands:  1 eigenvalues not converged
     c_bands:  1 eigenvalues not converged
     c_bands:  1 eigenvalues not converged
     c_bands:  1 eigenvalues not converged
     c_bands:  1 eigenvalues not converged
     c_bands:  1 eigenvalues not converged
     c_bands:  1 eigenvalues not converged
     c_bands:  1 eigenvalues not converged
     c_bands:  1 eigenvalues not converged
     c_bands:  1 eigenvalues not converged
     c_bands:  1 eigenvalues not converged
     c_bands:  1 eigenvalues not converged
     c_bands:  1 eigenvalues not converged
     ethr =  1.17E-05,  avg # of iterations = 13.2

     negative rho (up, down):  0.000E+00 1.080E-03

     total cpu time spent up to now is    40364.6 secs

     total energy              =   -2126.04183348 Ry
     estimated scf accuracy    <       0.00051091 Ry

     total magnetization       =    19.00 Bohr mag/cell
     absolute magnetization    =    19.03 Bohr mag/cell

     iteration #  9     ecut=   100.00 Ry     beta= 0.40
     Davidson diagonalization with overlap
     c_bands:  1 eigenvalues not converged
     c_bands:  1 eigenvalues not converged
     c_bands:  1 eigenvalues not converged
     c_bands:  1 eigenvalues not converged
     c_bands:  1 eigenvalues not converged
     c_bands:  1 eigenvalues not converged
     c_bands:  1 eigenvalues not converged
     c_bands:  1 eigenvalues not converged
     c_bands:  1 eigenvalues not converged
     c_bands:  1 eigenvalues not converged
     c_bands:  2 eigenvalues not converged
     c_bands:  1 eigenvalues not converged
     c_bands:  1 eigenvalues not converged
     c_bands:  1 eigenvalues not converged
     ethr =  2.70E-07,  avg # of iterations =  8.1

     negative rho (up, down):  0.000E+00 1.064E-03

     total cpu time spent up to now is    51382.4 secs

     total energy              =   -2126.04249390 Ry
     estimated scf accuracy    <       0.00079255 Ry

     total magnetization       =    19.00 Bohr mag/cell
     absolute magnetization    =    19.03 Bohr mag/cell

     iteration # 10     ecut=   100.00 Ry     beta= 0.40
     Davidson diagonalization with overlap
     c_bands:  1 eigenvalues not converged
     ethr =  2.70E-07,  avg # of iterations =  2.1

     negative rho (up, down):  0.000E+00 1.049E-03

     total cpu time spent up to now is    56817.1 secs

     total energy              =   -2126.04253964 Ry
     estimated scf accuracy    <       0.00068653 Ry

     total magnetization       =    19.00 Bohr mag/cell
     absolute magnetization    =    19.04 Bohr mag/cell

     iteration # 11     ecut=   100.00 Ry     beta= 0.40
     Davidson diagonalization with overlap
     ethr =  2.70E-07,  avg # of iterations =  1.0

     negative rho (up, down):  0.000E+00 1.045E-03

     total cpu time spent up to now is    61928.3 secs

     total energy              =   -2126.04257269 Ry
     estimated scf accuracy    <       0.00008437 Ry

     total magnetization       =    19.00 Bohr mag/cell
     absolute magnetization    =    19.04 Bohr mag/cell

     iteration # 12     ecut=   100.00 Ry     beta= 0.40
     Davidson diagonalization with overlap
     ethr =  4.46E-08,  avg # of iterations =  1.0

     negative rho (up, down):  0.000E+00 1.045E-03

     total cpu time spent up to now is    67052.5 secs

     total energy              =   -2126.04257782 Ry
     estimated scf accuracy    <       0.00001341 Ry

     total magnetization       =    19.00 Bohr mag/cell
     absolute magnetization    =    19.04 Bohr mag/cell

     iteration # 13     ecut=   100.00 Ry     beta= 0.40
     Davidson diagonalization with overlap
     ethr =  7.10E-09,  avg # of iterations =  3.0

     negative rho (up, down):  0.000E+00 1.045E-03

     total cpu time spent up to now is    73392.4 secs

     total energy              =   -2126.04258110 Ry
     estimated scf accuracy    <       0.00002253 Ry

     total magnetization       =    19.00 Bohr mag/cell
     absolute magnetization    =    19.04 Bohr mag/cell

     iteration # 14     ecut=   100.00 Ry     beta= 0.40
     Davidson diagonalization with overlap
     ethr =  7.10E-09,  avg # of iterations =  1.9

     negative rho (up, down):  0.000E+00 1.046E-03

     total cpu time spent up to now is    78705.3 secs

     total energy              =   -2126.04258289 Ry
     estimated scf accuracy    <       0.00000094 Ry

     total magnetization       =    19.00 Bohr mag/cell
     absolute magnetization    =    19.04 Bohr mag/cell

     iteration # 15     ecut=   100.00 Ry     beta= 0.40
     Davidson diagonalization with overlap
     ethr =  4.95E-10,  avg # of iterations =  4.8

     negative rho (up, down):  0.000E+00 1.046E-03

     total cpu time spent up to now is    86983.4 secs

     total energy              =   -2126.04258346 Ry
     estimated scf accuracy    <       0.00000018 Ry

     total magnetization       =    19.00 Bohr mag/cell
     absolute magnetization    =    19.04 Bohr mag/cell

     iteration # 16     ecut=   100.00 Ry     beta= 0.40
     Davidson diagonalization with overlap
     ethr =  9.45E-11,  avg # of iterations =  2.2

     negative rho (up, down):  0.000E+00 1.046E-03

     total cpu time spent up to now is    92570.5 secs

     total energy              =   -2126.04258353 Ry
     estimated scf accuracy    <       0.00000016 Ry

     total magnetization       =    19.00 Bohr mag/cell
     absolute magnetization    =    19.04 Bohr mag/cell

     iteration # 17     ecut=   100.00 Ry     beta= 0.40
     Davidson diagonalization with overlap
     ethr =  8.58E-11,  avg # of iterations =  1.2

     negative rho (up, down):  0.000E+00 1.046E-03

     total cpu time spent up to now is    97708.7 secs

     total energy              =   -2126.04258356 Ry
     estimated scf accuracy    <       0.00000003 Ry

     total magnetization       =    19.00 Bohr mag/cell
     absolute magnetization    =    19.04 Bohr mag/cell

     iteration # 18     ecut=   100.00 Ry     beta= 0.40
     Davidson diagonalization with overlap
     ethr =  1.47E-11,  avg # of iterations =  2.8

     negative rho (up, down):  0.000E+00 1.046E-03

     total cpu time spent up to now is   103272.7 secs

     total energy              =   -2126.04258357 Ry
     estimated scf accuracy    <          2.1E-09 Ry

     total magnetization       =    19.00 Bohr mag/cell
     absolute magnetization    =    19.04 Bohr mag/cell

     iteration # 19     ecut=   100.00 Ry     beta= 0.40
     Davidson diagonalization with overlap
     ethr =  1.10E-12,  avg # of iterations =  5.5

     negative rho (up, down):  0.000E+00 1.046E-03

     total cpu time spent up to now is   112746.9 secs

     total energy              =   -2126.04258357 Ry
     estimated scf accuracy    <          2.1E-09 Ry

     total magnetization       =    19.00 Bohr mag/cell
     absolute magnetization    =    19.04 Bohr mag/cell

     iteration # 20     ecut=   100.00 Ry     beta= 0.40
     Davidson diagonalization with overlap
     ethr =  1.10E-12,  avg # of iterations =  2.0

     negative rho (up, down):  0.000E+00 1.046E-03

     total cpu time spent up to now is   118176.9 secs

     total energy              =   -2126.04258357 Ry
     estimated scf accuracy    <          2.1E-09 Ry

     total magnetization       =    19.00 Bohr mag/cell
     absolute magnetization    =    19.04 Bohr mag/cell

     iteration # 21     ecut=   100.00 Ry     beta= 0.40
     Davidson diagonalization with overlap
     ethr =  1.10E-12,  avg # of iterations =  1.2

     negative rho (up, down):  0.000E+00 1.046E-03

     total cpu time spent up to now is   123243.4 secs

     total energy              =   -2126.04258357 Ry
     estimated scf accuracy    <          3.9E-10 Ry

     total magnetization       =    19.00 Bohr mag/cell
     absolute magnetization    =    19.04 Bohr mag/cell

     iteration # 22     ecut=   100.00 Ry     beta= 0.40
     Davidson diagonalization with overlap
     ethr =  2.06E-13,  avg # of iterations =  2.1

     negative rho (up, down):  0.000E+00 1.046E-03

     Magnetic moment per site:
     atom:    1    charge:    7.9510    magn:    0.0008    constr:    0.0000
     atom:    2    charge:   12.6911    magn:    3.5811    constr:    0.0000
     atom:    3    charge:   12.6937    magn:    3.5705    constr:    0.0000
     atom:    4    charge:   12.6911    magn:    3.5811    constr:    0.0000
     atom:    5    charge:   12.6937    magn:    3.5705    constr:    0.0000
     atom:    6    charge:    0.7634    magn:    0.0113    constr:    0.0000
     atom:    7    charge:    0.7625    magn:    0.0087    constr:    0.0000
     atom:    8    charge:    0.7634    magn:    0.0113    constr:    0.0000
     atom:    9    charge:    0.7625    magn:    0.0087    constr:    0.0000
     atom:   10    charge:    4.0451    magn:    0.1320    constr:    0.0000
     atom:   11    charge:    4.0477    magn:    0.0864    constr:    0.0000
     atom:   12    charge:    4.0451    magn:    0.1320    constr:    0.0000
     atom:   13    charge:    4.0477    magn:    0.0864    constr:    0.0000
     atom:   14    charge:    4.0874    magn:    0.0901    constr:    0.0000
     atom:   15    charge:    4.0951    magn:    0.1287    constr:    0.0000
     atom:   16    charge:    4.0874    magn:    0.0901    constr:    0.0000
     atom:   17    charge:    4.0951    magn:    0.1287    constr:    0.0000
     atom:   18    charge:    4.0610    magn:    0.1498    constr:    0.0000
     atom:   19    charge:    4.0651    magn:    0.1302    constr:    0.0000
     atom:   20    charge:    4.0595    magn:    0.1421    constr:    0.0000
     atom:   21    charge:    4.0599    magn:    0.1203    constr:    0.0000
     atom:   22    charge:    4.0610    magn:    0.1498    constr:    0.0000
     atom:   23    charge:    4.0651    magn:    0.1302    constr:    0.0000
     atom:   24    charge:    4.0595    magn:    0.1421    constr:    0.0000
     atom:   25    charge:    4.0599    magn:    0.1203    constr:    0.0000

     total cpu time spent up to now is   128721.7 secs

     End of self-consistent calculation

 ------ SPIN UP ------------


          k = 0.0000 0.0000 0.0000 ( 32925 PWs)   bands (ev):

   -83.6844 -83.6837 -83.6811 -83.6804 -49.8771 -49.8765 -49.8191 -49.8185
   -49.6612 -49.6605 -49.6128 -49.6119 -49.5758 -49.5752 -49.5710 -49.5702
   -43.4076 -15.8272 -15.7891 -15.5472 -15.4338 -15.4145 -15.3806 -15.1087
   -13.2286 -13.0839 -13.0504 -13.0081 -12.7307 -12.6775 -12.6264 -12.5874
   -12.5306 -12.4904 -12.4331 -12.3799  -3.2051  -2.7120  -2.5481  -2.0757
    -1.5796  -1.1476  -1.0304  -0.9174  -0.8888  -0.6190  -0.5706  -0.4792
    -0.3145  -0.1748  -0.0197   0.3371   0.5523   0.5666   1.1816   1.2485
     1.2721   1.3697   1.5343   1.5400   1.6334   1.6867   1.9627   2.0629
     2.2694   2.4110   2.4275   2.4501   2.5470   2.6515   2.6707   2.6960
     2.7714   2.9857   3.2165   3.2982   3.3772   3.4543   3.5185   3.5732
     3.7125   3.8856   4.0510   4.1495   4.1951   4.2420   4.4007   4.4437
     4.5210   4.6466   4.6726   4.6804   4.8837   4.9175   4.9206   5.0471
     5.1542   5.3839   5.5223   5.8564   6.0070   6.1651   6.2972   6.3832
    11.0141  13.1191  13.2458  13.9768  14.0297  14.3533  15.0163  15.1588
    15.2526  15.2740

     occupation numbers 
     1.0000   1.0000   1.0000   1.0000   1.0000   1.0000   1.0000   1.0000
     1.0000   1.0000   1.0000   1.0000   1.0000   1.0000   1.0000   1.0000
     1.0000   1.0000   1.0000   1.0000   1.0000   1.0000   1.0000   1.0000
     1.0000   1.0000   1.0000   1.0000   1.0000   1.0000   1.0000   1.0000
     1.0000   1.0000   1.0000   1.0000   1.0000   1.0000   1.0000   1.0000
     1.0000   1.0000   1.0000   1.0000   1.0000   1.0000   1.0000   1.0000
     1.0000   1.0000   1.0000   1.0000   1.0000   1.0000   1.0000   1.0000
     1.0000   1.0000   1.0000   1.0000   1.0000   1.0000   1.0000   1.0000
     1.0000   1.0000   1.0000   1.0000   1.0000   1.0000   1.0000   1.0000
     1.0000   1.0000   1.0000   1.0000   1.0000   1.0000   1.0000   1.0000
     1.0000   1.0000   1.0000   1.0000   1.0000   1.0000   1.0000   1.0000
     1.0000   1.0000   1.0000   1.0000   1.0000   1.0000   1.0000   1.0000
     1.0000   1.0000   1.0000   1.0000   1.0000   1.0000   1.0000   1.0000
     0.0000   0.0000   0.0000   0.0000   0.0000   0.0000   0.0000   0.0000
     0.0000   0.0000

          k = 0.0000 0.0000 0.2220 ( 32901 PWs)   bands (ev):

   -83.6844 -83.6837 -83.6811 -83.6804 -49.8771 -49.8765 -49.8191 -49.8185
   -49.6612 -49.6605 -49.6128 -49.6119 -49.5758 -49.5752 -49.5710 -49.5702
   -43.4076 -15.8511 -15.7498 -15.5610 -15.4289 -15.3918 -15.3755 -15.1219
   -13.2296 -13.0966 -13.0493 -13.0062 -12.7250 -12.6739 -12.6385 -12.5890
   -12.5335 -12.4965 -12.4467 -12.3888  -3.1760  -2.6991  -2.5464  -2.0969
    -1.5168  -1.1225  -1.0413  -0.9053  -0.8788  -0.6641  -0.5293  -0.4352
    -0.3016  -0.1421  -0.0678   0.3625   0.5282   0.5671   1.1846   1.2276
     1.2920   1.3701   1.5452   1.5694   1.6386   1.6485   1.9266   2.1179
     2.2370   2.3683   2.3999   2.4231   2.5238   2.5996   2.6510   2.7013
     2.9063   2.9608   3.1611   3.3049   3.3439   3.4291   3.4840   3.6024
     3.7243   3.8365   4.0776   4.1217   4.2329   4.3041   4.3202   4.4423
     4.4797   4.5911   4.6658   4.7065   4.8523   4.9145   5.0225   5.1160
     5.1659   5.3691   5.5651   5.8392   6.0042   6.1446   6.2677   6.3567
    11.1708  13.1901  13.3267  13.9370  14.1381  14.3304  14.9661  15.1052
    15.1377  15.2742

     occupation numbers 
     1.0000   1.0000   1.0000   1.0000   1.0000   1.0000   1.0000   1.0000
     1.0000   1.0000   1.0000   1.0000   1.0000   1.0000   1.0000   1.0000
     1.0000   1.0000   1.0000   1.0000   1.0000   1.0000   1.0000   1.0000
     1.0000   1.0000   1.0000   1.0000   1.0000   1.0000   1.0000   1.0000
     1.0000   1.0000   1.0000   1.0000   1.0000   1.0000   1.0000   1.0000
     1.0000   1.0000   1.0000   1.0000   1.0000   1.0000   1.0000   1.0000
     1.0000   1.0000   1.0000   1.0000   1.0000   1.0000   1.0000   1.0000
     1.0000   1.0000   1.0000   1.0000   1.0000   1.0000   1.0000   1.0000
     1.0000   1.0000   1.0000   1.0000   1.0000   1.0000   1.0000   1.0000
     1.0000   1.0000   1.0000   1.0000   1.0000   1.0000   1.0000   1.0000
     1.0000   1.0000   1.0000   1.0000   1.0000   1.0000   1.0000   1.0000
     1.0000   1.0000   1.0000   1.0000   1.0000   1.0000   1.0000   1.0000
     1.0000   1.0000   1.0000   1.0000   1.0000   1.0000   1.0000   1.0000
     0.0000   0.0000   0.0000   0.0000   0.0000   0.0000   0.0000   0.0000
     0.0000   0.0000

          k = 0.0000 0.0000 0.4441 ( 32914 PWs)   bands (ev):

   -83.6844 -83.6837 -83.6811 -83.6804 -49.8771 -49.8765 -49.8191 -49.8185
   -49.6612 -49.6605 -49.6128 -49.6119 -49.5758 -49.5752 -49.5710 -49.5702
   -43.4076 -15.8776 -15.6812 -15.5753 -15.4250 -15.3688 -15.3410 -15.1565
   -13.2310 -13.1261 -13.0487 -13.0043 -12.7116 -12.6737 -12.6563 -12.5912
   -12.5433 -12.5135 -12.4798 -12.4124  -3.0930  -2.6750  -2.5372  -2.1646
    -1.3441  -1.0710  -1.0475  -0.8923  -0.8476  -0.6925  -0.5239  -0.3192
    -0.2244  -0.1878  -0.0601   0.3894   0.4671   0.6130   1.1540   1.2465
     1.3142   1.3822   1.5644   1.5813   1.6394   1.6538   1.8281   2.2039
     2.2247   2.2833   2.3436   2.3672   2.4355   2.5172   2.6055   2.7036
     2.7937   2.9941   3.1844   3.2720   3.3300   3.3626   3.4473   3.6651
     3.7242   3.7742   4.0474   4.1312   4.1906   4.2807   4.3334   4.3578
     4.4850   4.5209   4.6363   4.7664   4.9187   4.9677   5.1388   5.1717
     5.2923   5.3278   5.6523   5.8088   5.9898   6.0955   6.1815   6.2779
    11.5932  13.3693  13.5449  13.9801  14.2994  14.3178  14.7037  14.8921
    15.1110  15.2847

     occupation numbers 
     1.0000   1.0000   1.0000   1.0000   1.0000   1.0000   1.0000   1.0000
     1.0000   1.0000   1.0000   1.0000   1.0000   1.0000   1.0000   1.0000
     1.0000   1.0000   1.0000   1.0000   1.0000   1.0000   1.0000   1.0000
     1.0000   1.0000   1.0000   1.0000   1.0000   1.0000   1.0000   1.0000
     1.0000   1.0000   1.0000   1.0000   1.0000   1.0000   1.0000   1.0000
     1.0000   1.0000   1.0000   1.0000   1.0000   1.0000   1.0000   1.0000
     1.0000   1.0000   1.0000   1.0000   1.0000   1.0000   1.0000   1.0000
     1.0000   1.0000   1.0000   1.0000   1.0000   1.0000   1.0000   1.0000
     1.0000   1.0000   1.0000   1.0000   1.0000   1.0000   1.0000   1.0000
     1.0000   1.0000   1.0000   1.0000   1.0000   1.0000   1.0000   1.0000
     1.0000   1.0000   1.0000   1.0000   1.0000   1.0000   1.0000   1.0000
     1.0000   1.0000   1.0000   1.0000   1.0000   1.0000   1.0000   1.0000
     1.0000   1.0000   1.0000   1.0000   1.0000   1.0000   1.0000   1.0000
     0.0000   0.0000   0.0000   0.0000   0.0000   0.0000   0.0000   0.0000
     0.0000   0.0000

          k = 0.0000 0.0000 0.6661 ( 32938 PWs)   bands (ev):

   -83.6844 -83.6837 -83.6811 -83.6804 -49.8771 -49.8765 -49.8191 -49.8185
   -49.6612 -49.6605 -49.6128 -49.6119 -49.5758 -49.5752 -49.5710 -49.5702
   -43.4076 -15.8973 -15.6182 -15.5548 -15.4223 -15.3570 -15.3240 -15.1886
   -13.2290 -13.1604 -13.0508 -13.0044 -12.7225 -12.6717 -12.6429 -12.5924
   -12.5607 -12.5361 -12.5140 -12.4417  -2.9695  -2.6714  -2.5141  -2.2702
    -1.1556  -1.0411  -0.9896  -0.8891  -0.7856  -0.6945  -0.5229  -0.3796
    -0.2114  -0.0362   0.0429   0.2351   0.5919   0.7118   1.0966   1.2997
     1.3524   1.3708   1.5316   1.5634   1.6249   1.6946   1.7361   2.1096
     2.2207   2.2579   2.3033   2.3540   2.3799   2.4571   2.5047   2.5675
     2.7407   2.8560   3.1534   3.1982   3.3013   3.4520   3.5650   3.6461
     3.7334   3.8012   3.9289   4.0351   4.1676   4.1857   4.2866   4.3512
     4.4680   4.5415   4.6847   4.8095   5.0168   5.1091   5.2011   5.2596
     5.2829   5.4718   5.7291   5.7946   5.9457   6.0278   6.0748   6.1533
    12.1796  13.5952  13.7789  14.1288  14.1836  14.4948  14.5235  14.7408
    14.8615  14.9754

     occupation numbers 
     1.0000   1.0000   1.0000   1.0000   1.0000   1.0000   1.0000   1.0000
     1.0000   1.0000   1.0000   1.0000   1.0000   1.0000   1.0000   1.0000
     1.0000   1.0000   1.0000   1.0000   1.0000   1.0000   1.0000   1.0000
     1.0000   1.0000   1.0000   1.0000   1.0000   1.0000   1.0000   1.0000
     1.0000   1.0000   1.0000   1.0000   1.0000   1.0000   1.0000   1.0000
     1.0000   1.0000   1.0000   1.0000   1.0000   1.0000   1.0000   1.0000
     1.0000   1.0000   1.0000   1.0000   1.0000   1.0000   1.0000   1.0000
     1.0000   1.0000   1.0000   1.0000   1.0000   1.0000   1.0000   1.0000
     1.0000   1.0000   1.0000   1.0000   1.0000   1.0000   1.0000   1.0000
     1.0000   1.0000   1.0000   1.0000   1.0000   1.0000   1.0000   1.0000
     1.0000   1.0000   1.0000   1.0000   1.0000   1.0000   1.0000   1.0000
     1.0000   1.0000   1.0000   1.0000   1.0000   1.0000   1.0000   1.0000
     1.0000   1.0000   1.0000   1.0000   1.0000   1.0000   1.0000   1.0000
     0.0000   0.0000   0.0000   0.0000   0.0000   0.0000   0.0000   0.0000
     0.0000   0.0000

          k = 0.0000 0.0000 0.8882 ( 32928 PWs)   bands (ev):

   -83.6844 -83.6837 -83.6811 -83.6804 -49.8771 -49.8765 -49.8191 -49.8185
   -49.6612 -49.6605 -49.6128 -49.6119 -49.5758 -49.5752 -49.5710 -49.5702
   -43.4076 -15.9082 -15.6020 -15.4735 -15.4210 -15.3837 -15.3426 -15.1895
   -13.2211 -13.1886 -13.0541 -13.0046 -12.7448 -12.6470 -12.6299 -12.5929
   -12.5821 -12.5553 -12.5307 -12.4635  -2.8315  -2.7202  -2.4720  -2.3780
    -1.0991  -1.0198  -0.8928  -0.8674  -0.6843  -0.6583  -0.5592  -0.5383
    -0.1055   0.0488   0.1024   0.1334   0.7918   0.8982   1.0074   1.1720
     1.3356   1.4100   1.5070   1.5567   1.5728   1.6158   1.8020   1.9706
     2.1587   2.2527   2.2770   2.3331   2.3554   2.4084   2.4876   2.5487
     2.7746   2.8156   2.9735   3.0514   3.3435   3.5434   3.6152   3.6776
     3.8009   3.8495   3.8754   3.9769   4.0331   4.0561   4.3073   4.3408
     4.4631   4.5431   4.7711   4.8674   5.0622   5.1239   5.1745   5.3260
     5.4737   5.6494   5.7510   5.7705   5.8301   5.9561   6.0250   6.0448
    12.8315  13.4617  13.8039  14.2061  14.2968  14.5435  14.5866  14.6232
    14.7579  14.8721

     occupation numbers 
     1.0000   1.0000   1.0000   1.0000   1.0000   1.0000   1.0000   1.0000
     1.0000   1.0000   1.0000   1.0000   1.0000   1.0000   1.0000   1.0000
     1.0000   1.0000   1.0000   1.0000   1.0000   1.0000   1.0000   1.0000
     1.0000   1.0000   1.0000   1.0000   1.0000   1.0000   1.0000   1.0000
     1.0000   1.0000   1.0000   1.0000   1.0000   1.0000   1.0000   1.0000
     1.0000   1.0000   1.0000   1.0000   1.0000   1.0000   1.0000   1.0000
     1.0000   1.0000   1.0000   1.0000   1.0000   1.0000   1.0000   1.0000
     1.0000   1.0000   1.0000   1.0000   1.0000   1.0000   1.0000   1.0000
     1.0000   1.0000   1.0000   1.0000   1.0000   1.0000   1.0000   1.0000
     1.0000   1.0000   1.0000   1.0000   1.0000   1.0000   1.0000   1.0000
     1.0000   1.0000   1.0000   1.0000   1.0000   1.0000   1.0000   1.0000
     1.0000   1.0000   1.0000   1.0000   1.0000   1.0000   1.0000   1.0000
     1.0000   1.0000   1.0000   1.0000   1.0000   1.0000   1.0000   1.0000
     0.0000   0.0000   0.0000   0.0000   0.0000   0.0000   0.0000   0.0000
     0.0000   0.0000

          k = 0.0000 0.2391 0.0000 ( 32913 PWs)   bands (ev):

   -83.6844 -83.6837 -83.6811 -83.6804 -49.8771 -49.8765 -49.8191 -49.8185
   -49.6612 -49.6605 -49.6128 -49.6119 -49.5758 -49.5752 -49.5710 -49.5702
   -43.4076 -15.8334 -15.7616 -15.5417 -15.4347 -15.4145 -15.3869 -15.1225
   -13.2341 -13.0889 -13.0580 -13.0141 -12.7257 -12.7192 -12.6050 -12.5742
   -12.5236 -12.5039 -12.4204 -12.3760  -3.1801  -2.7346  -2.5165  -2.0799
    -1.5504  -1.1615  -1.0353  -0.9271  -0.8309  -0.6244  -0.5534  -0.4611
    -0.2757  -0.1694   0.0323   0.3609   0.4694   0.6246   1.1934   1.2220
     1.2421   1.3523   1.4337   1.5123   1.5654   1.7584   2.0336   2.0837
     2.2729   2.3791   2.4301   2.4572   2.5172   2.5618   2.6442   2.6924
     2.8108   2.9921   3.2511   3.2682   3.3630   3.4705   3.5140   3.5854
     3.8045   3.8761   3.9519   4.1158   4.1512   4.2066   4.3769   4.4134
     4.4929   4.5371   4.6592   4.7671   4.9076   4.9314   4.9420   5.0796
     5.1536   5.3581   5.6218   5.7468   5.9440   6.1076   6.4205   6.4358
    11.1719  13.2035  13.3345  13.8601  14.1299  14.4639  14.9664  15.1093
    15.2257  15.2652

     occupation numbers 
     1.0000   1.0000   1.0000   1.0000   1.0000   1.0000   1.0000   1.0000
     1.0000   1.0000   1.0000   1.0000   1.0000   1.0000   1.0000   1.0000
     1.0000   1.0000   1.0000   1.0000   1.0000   1.0000   1.0000   1.0000
     1.0000   1.0000   1.0000   1.0000   1.0000   1.0000   1.0000   1.0000
     1.0000   1.0000   1.0000   1.0000   1.0000   1.0000   1.0000   1.0000
     1.0000   1.0000   1.0000   1.0000   1.0000   1.0000   1.0000   1.0000
     1.0000   1.0000   1.0000   1.0000   1.0000   1.0000   1.0000   1.0000
     1.0000   1.0000   1.0000   1.0000   1.0000   1.0000   1.0000   1.0000
     1.0000   1.0000   1.0000   1.0000   1.0000   1.0000   1.0000   1.0000
     1.0000   1.0000   1.0000   1.0000   1.0000   1.0000   1.0000   1.0000
     1.0000   1.0000   1.0000   1.0000   1.0000   1.0000   1.0000   1.0000
     1.0000   1.0000   1.0000   1.0000   1.0000   1.0000   1.0000   1.0000
     1.0000   1.0000   1.0000   1.0000   1.0000   1.0000   1.0000   1.0000
     0.0000   0.0000   0.0000   0.0000   0.0000   0.0000   0.0000   0.0000
     0.0000   0.0000

          k = 0.0000 0.2391 0.2220 ( 32922 PWs)   bands (ev):

   -83.6844 -83.6837 -83.6811 -83.6804 -49.8771 -49.8765 -49.8191 -49.8185
   -49.6612 -49.6605 -49.6128 -49.6119 -49.5758 -49.5752 -49.5710 -49.5702
   -43.4076 -15.8075 -15.7781 -15.5541 -15.4318 -15.3998 -15.3758 -15.1262
   -13.2338 -13.0944 -13.0561 -13.0177 -12.7316 -12.7268 -12.6142 -12.5612
   -12.5296 -12.5057 -12.4329 -12.3862  -3.1512  -2.7206  -2.5146  -2.1007
    -1.4910  -1.1372  -1.0385  -0.9183  -0.8197  -0.6575  -0.5180  -0.4198
    -0.2571  -0.1462  -0.0101   0.3421   0.4735   0.6332   1.1764   1.2250
     1.2503   1.3518   1.4674   1.5190   1.5339   1.7386   2.0486   2.0902
     2.1937   2.3403   2.4106   2.4465   2.5204   2.5742   2.6199   2.6797
     2.9472   2.9581   3.1854   3.2813   3.3549   3.4516   3.4866   3.5882
     3.8025   3.8236   3.9971   4.0883   4.1650   4.2540   4.3045   4.4174
     4.4614   4.5265   4.6696   4.7093   4.8991   4.9505   5.0204   5.1426
     5.1572   5.3490   5.6533   5.7125   5.9245   6.1167   6.3981   6.4183
    11.3233  13.2780  13.4102  13.8908  14.1598  14.4399  14.9445  15.0458
    15.1368  15.2221

     occupation numbers 
     1.0000   1.0000   1.0000   1.0000   1.0000   1.0000   1.0000   1.0000
     1.0000   1.0000   1.0000   1.0000   1.0000   1.0000   1.0000   1.0000
     1.0000   1.0000   1.0000   1.0000   1.0000   1.0000   1.0000   1.0000
     1.0000   1.0000   1.0000   1.0000   1.0000   1.0000   1.0000   1.0000
     1.0000   1.0000   1.0000   1.0000   1.0000   1.0000   1.0000   1.0000
     1.0000   1.0000   1.0000   1.0000   1.0000   1.0000   1.0000   1.0000
     1.0000   1.0000   1.0000   1.0000   1.0000   1.0000   1.0000   1.0000
     1.0000   1.0000   1.0000   1.0000   1.0000   1.0000   1.0000   1.0000
     1.0000   1.0000   1.0000   1.0000   1.0000   1.0000   1.0000   1.0000
     1.0000   1.0000   1.0000   1.0000   1.0000   1.0000   1.0000   1.0000
     1.0000   1.0000   1.0000   1.0000   1.0000   1.0000   1.0000   1.0000
     1.0000   1.0000   1.0000   1.0000   1.0000   1.0000   1.0000   1.0000
     1.0000   1.0000   1.0000   1.0000   1.0000   1.0000   1.0000   1.0000
     0.0000   0.0000   0.0000   0.0000   0.0000   0.0000   0.0000   0.0000
     0.0000   0.0000

          k = 0.0000 0.2391 0.4441 ( 32913 PWs)   bands (ev):

   -83.6844 -83.6837 -83.6811 -83.6804 -49.8771 -49.8765 -49.8191 -49.8185
   -49.6612 -49.6605 -49.6128 -49.6119 -49.5759 -49.5752 -49.5710 -49.5702
   -43.4076 -15.8418 -15.7078 -15.5677 -15.4262 -15.3797 -15.3473 -15.1470
   -13.2345 -13.1231 -13.0525 -13.0146 -12.7451 -12.7263 -12.6357 -12.5579
   -12.5380 -12.5169 -12.4557 -12.4092  -3.0689  -2.6918  -2.5084  -2.1667
    -1.3268  -1.0785  -1.0394  -0.9018  -0.7870  -0.6811  -0.5096  -0.2970
    -0.2014  -0.1203  -0.0739   0.2813   0.5076   0.6578   1.1238   1.2166
     1.2653   1.3673   1.4805   1.5396   1.6031   1.7020   1.9815   2.1082
     2.1689   2.2703   2.3586   2.4006   2.4899   2.5373   2.5716   2.6840
     2.8033   3.0214   3.1914   3.2692   3.3324   3.3631   3.4778   3.6132
     3.7031   3.8340   4.0139   4.0936   4.1464   4.2261   4.3035   4.3349
     4.4362   4.5435   4.6578   4.7269   4.9192   4.9981   5.1546   5.1566
     5.2661   5.3164   5.6562   5.7193   5.8815   6.1191   6.3354   6.3665
    11.7337  13.4584  13.6230  13.9952  14.2769  14.4111  14.7136  14.8845
    14.9896  15.2784

     occupation numbers 
     1.0000   1.0000   1.0000   1.0000   1.0000   1.0000   1.0000   1.0000
     1.0000   1.0000   1.0000   1.0000   1.0000   1.0000   1.0000   1.0000
     1.0000   1.0000   1.0000   1.0000   1.0000   1.0000   1.0000   1.0000
     1.0000   1.0000   1.0000   1.0000   1.0000   1.0000   1.0000   1.0000
     1.0000   1.0000   1.0000   1.0000   1.0000   1.0000   1.0000   1.0000
     1.0000   1.0000   1.0000   1.0000   1.0000   1.0000   1.0000   1.0000
     1.0000   1.0000   1.0000   1.0000   1.0000   1.0000   1.0000   1.0000
     1.0000   1.0000   1.0000   1.0000   1.0000   1.0000   1.0000   1.0000
     1.0000   1.0000   1.0000   1.0000   1.0000   1.0000   1.0000   1.0000
     1.0000   1.0000   1.0000   1.0000   1.0000   1.0000   1.0000   1.0000
     1.0000   1.0000   1.0000   1.0000   1.0000   1.0000   1.0000   1.0000
     1.0000   1.0000   1.0000   1.0000   1.0000   1.0000   1.0000   1.0000
     1.0000   1.0000   1.0000   1.0000   1.0000   1.0000   1.0000   1.0000
     0.0000   0.0000   0.0000   0.0000   0.0000   0.0000   0.0000   0.0000
     0.0000   0.0000

          k = 0.0000 0.2391 0.6661 ( 32939 PWs)   bands (ev):

   -83.6844 -83.6837 -83.6811 -83.6804 -49.8771 -49.8765 -49.8191 -49.8185
   -49.6612 -49.6605 -49.6128 -49.6119 -49.5759 -49.5752 -49.5710 -49.5702
   -43.4076 -15.8713 -15.6256 -15.5611 -15.4228 -15.3645 -15.3427 -15.1648
   -13.2334 -13.1582 -13.0526 -13.0104 -12.7671 -12.7107 -12.6653 -12.5690
   -12.5405 -12.5243 -12.4787 -12.4354  -2.9468  -2.6790  -2.4926  -2.2711
    -1.1422  -1.0311  -0.9875  -0.8945  -0.7284  -0.6739  -0.5102  -0.3455
    -0.1592  -0.0313   0.0302   0.1689   0.6050   0.7120   1.0320   1.1896
     1.2947   1.4119   1.4675   1.5733   1.6397   1.7558   1.8846   2.0410
     2.1527   2.2672   2.2859   2.3599   2.4377   2.4729   2.5163   2.5788
     2.7075   2.8610   3.1432   3.1955   3.3197   3.4615   3.5571   3.6237
     3.6633   3.8117   3.9486   4.0743   4.1092   4.1816   4.2282   4.3414
     4.4378   4.5313   4.7216   4.8041   4.9973   5.0725   5.1797   5.2370
     5.2735   5.4117   5.6062   5.7014   5.9030   6.1189   6.2393   6.2942
    12.3072  13.6800  13.8538  14.1834  14.2862  14.4389  14.5599  14.7120
    14.8079  14.9622

     occupation numbers 
     1.0000   1.0000   1.0000   1.0000   1.0000   1.0000   1.0000   1.0000
     1.0000   1.0000   1.0000   1.0000   1.0000   1.0000   1.0000   1.0000
     1.0000   1.0000   1.0000   1.0000   1.0000   1.0000   1.0000   1.0000
     1.0000   1.0000   1.0000   1.0000   1.0000   1.0000   1.0000   1.0000
     1.0000   1.0000   1.0000   1.0000   1.0000   1.0000   1.0000   1.0000
     1.0000   1.0000   1.0000   1.0000   1.0000   1.0000   1.0000   1.0000
     1.0000   1.0000   1.0000   1.0000   1.0000   1.0000   1.0000   1.0000
     1.0000   1.0000   1.0000   1.0000   1.0000   1.0000   1.0000   1.0000
     1.0000   1.0000   1.0000   1.0000   1.0000   1.0000   1.0000   1.0000
     1.0000   1.0000   1.0000   1.0000   1.0000   1.0000   1.0000   1.0000
     1.0000   1.0000   1.0000   1.0000   1.0000   1.0000   1.0000   1.0000
     1.0000   1.0000   1.0000   1.0000   1.0000   1.0000   1.0000   1.0000
     1.0000   1.0000   1.0000   1.0000   1.0000   1.0000   1.0000   1.0000
     0.0000   0.0000   0.0000   0.0000   0.0000   0.0000   0.0000   0.0000
     0.0000   0.0000

          k = 0.0000 0.2391 0.8882 ( 32940 PWs)   bands (ev):

   -83.6844 -83.6837 -83.6811 -83.6804 -49.8771 -49.8765 -49.8191 -49.8185
   -49.6612 -49.6605 -49.6128 -49.6119 -49.5759 -49.5752 -49.5710 -49.5702
   -43.4076 -15.8914 -15.5886 -15.4941 -15.4214 -15.3917 -15.3528 -15.1702
   -13.2264 -13.1886 -13.0539 -13.0081 -12.7802 -12.6920 -12.6847 -12.5953
   -12.5369 -12.5220 -12.4953 -12.4512  -2.8119  -2.7152  -2.4615  -2.3763
    -1.0754  -1.0083  -0.8929  -0.8737  -0.6493  -0.6201  -0.5408  -0.4955
    -0.0812   0.0031   0.1115   0.1386   0.7496   0.8453   0.9166   1.0245
     1.3846   1.4132   1.5171   1.6072   1.6744   1.7101   1.8378   1.9508
     2.1413   2.2359   2.2606   2.3081   2.3660   2.4062   2.5056   2.5275
     2.7051   2.8213   2.9639   3.0895   3.3542   3.5336   3.5853   3.6388
     3.7622   3.8188   3.8901   3.9871   4.0444   4.1179   4.2214   4.3696
     4.4435   4.5165   4.7897   4.8649   5.0590   5.1210   5.1732   5.3021
     5.3128   5.5110   5.5509   5.6500   5.9620   6.1047   6.1498   6.2359
    12.9476  13.5586  13.8840  14.2965  14.3602  14.4872  14.5957  14.6418
    14.7377  14.9161

     occupation numbers 
     1.0000   1.0000   1.0000   1.0000   1.0000   1.0000   1.0000   1.0000
     1.0000   1.0000   1.0000   1.0000   1.0000   1.0000   1.0000   1.0000
     1.0000   1.0000   1.0000   1.0000   1.0000   1.0000   1.0000   1.0000
     1.0000   1.0000   1.0000   1.0000   1.0000   1.0000   1.0000   1.0000
     1.0000   1.0000   1.0000   1.0000   1.0000   1.0000   1.0000   1.0000
     1.0000   1.0000   1.0000   1.0000   1.0000   1.0000   1.0000   1.0000
     1.0000   1.0000   1.0000   1.0000   1.0000   1.0000   1.0000   1.0000
     1.0000   1.0000   1.0000   1.0000   1.0000   1.0000   1.0000   1.0000
     1.0000   1.0000   1.0000   1.0000   1.0000   1.0000   1.0000   1.0000
     1.0000   1.0000   1.0000   1.0000   1.0000   1.0000   1.0000   1.0000
     1.0000   1.0000   1.0000   1.0000   1.0000   1.0000   1.0000   1.0000
     1.0000   1.0000   1.0000   1.0000   1.0000   1.0000   1.0000   1.0000
     1.0000   1.0000   1.0000   1.0000   1.0000   1.0000   1.0000   1.0000
     0.0000   0.0000   0.0000   0.0000   0.0000   0.0000   0.0000   0.0000
     0.0000   0.0000

          k = 0.0000 0.4781 0.0000 ( 32886 PWs)   bands (ev):

   -83.6844 -83.6837 -83.6811 -83.6804 -49.8771 -49.8765 -49.8191 -49.8185
   -49.6612 -49.6605 -49.6128 -49.6119 -49.5759 -49.5752 -49.5710 -49.5702
   -43.4076 -15.8384 -15.6989 -15.5289 -15.4452 -15.4159 -15.4025 -15.1523
   -13.2422 -13.1129 -13.0789 -13.0184 -12.7421 -12.7053 -12.6389 -12.5877
   -12.5018 -12.4774 -12.3980 -12.3753  -3.1101  -2.8002  -2.4290  -2.1120
    -1.4673  -1.1982  -1.0375  -0.9504  -0.7162  -0.6306  -0.4865  -0.3940
    -0.2625  -0.0833   0.1268   0.3109   0.4606   0.7029   1.0529   1.1032
     1.2943   1.3233   1.3803   1.4659   1.5057   1.8703   1.9597   2.1702
     2.1730   2.2213   2.2883   2.3759   2.5778   2.6110   2.6884   2.7775
     2.9458   2.9773   3.1880   3.2920   3.3278   3.4062   3.5025   3.6366
     3.7898   3.8622   3.9157   3.9847   4.1239   4.1696   4.2806   4.3171
     4.4018   4.4546   4.8127   4.8240   4.9173   4.9518   4.9736   5.1070
     5.1979   5.3196   5.5015   5.6198   5.9020   6.2644   6.4835   6.5045
    11.6013  13.4285  13.4704  13.5715  14.3606  14.6599  14.8205  14.9412
    15.1687  15.3552

     occupation numbers 
     1.0000   1.0000   1.0000   1.0000   1.0000   1.0000   1.0000   1.0000
     1.0000   1.0000   1.0000   1.0000   1.0000   1.0000   1.0000   1.0000
     1.0000   1.0000   1.0000   1.0000   1.0000   1.0000   1.0000   1.0000
     1.0000   1.0000   1.0000   1.0000   1.0000   1.0000   1.0000   1.0000
     1.0000   1.0000   1.0000   1.0000   1.0000   1.0000   1.0000   1.0000
     1.0000   1.0000   1.0000   1.0000   1.0000   1.0000   1.0000   1.0000
     1.0000   1.0000   1.0000   1.0000   1.0000   1.0000   1.0000   1.0000
     1.0000   1.0000   1.0000   1.0000   1.0000   1.0000   1.0000   1.0000
     1.0000   1.0000   1.0000   1.0000   1.0000   1.0000   1.0000   1.0000
     1.0000   1.0000   1.0000   1.0000   1.0000   1.0000   1.0000   1.0000
     1.0000   1.0000   1.0000   1.0000   1.0000   1.0000   1.0000   1.0000
     1.0000   1.0000   1.0000   1.0000   1.0000   1.0000   1.0000   1.0000
     1.0000   1.0000   1.0000   1.0000   1.0000   1.0000   1.0000   1.0000
     0.0000   0.0000   0.0000   0.0000   0.0000   0.0000   0.0000   0.0000
     0.0000   0.0000

          k = 0.0000 0.4781 0.2220 ( 32900 PWs)   bands (ev):

   -83.6844 -83.6837 -83.6811 -83.6804 -49.8771 -49.8765 -49.8191 -49.8185
   -49.6612 -49.6605 -49.6128 -49.6119 -49.5759 -49.5752 -49.5710 -49.5702
   -43.4076 -15.8009 -15.7364 -15.5375 -15.4429 -15.4117 -15.3786 -15.1511
   -13.2409 -13.1038 -13.0874 -13.0245 -12.7508 -12.7226 -12.6554 -12.5735
   -12.5005 -12.4768 -12.4080 -12.3826  -3.0823  -2.7829  -2.4289  -2.1304
    -1.4160  -1.1710  -1.0279  -0.9428  -0.7080  -0.6372  -0.4579  -0.3710
    -0.2195  -0.0886   0.0895   0.2483   0.4961   0.7093   1.0232   1.0847
     1.2612   1.3464   1.4144   1.4654   1.5303   1.8475   1.9844   2.1185
     2.1439   2.1807   2.3048   2.3951   2.5456   2.6131   2.7170   2.7734
     2.9335   3.0415   3.1930   3.2542   3.3310   3.4157   3.4962   3.5828
     3.7459   3.8792   3.9357   3.9738   4.0361   4.2129   4.2712   4.3141
     4.3546   4.4553   4.7583   4.8288   4.9490   4.9853   5.0156   5.1454
     5.1983   5.3141   5.4634   5.6002   5.9266   6.2699   6.4811   6.4887
    11.7387  13.5051  13.5221  13.6599  14.3487  14.6386  14.8605  14.9094
    15.0546  15.2760

     occupation numbers 
     1.0000   1.0000   1.0000   1.0000   1.0000   1.0000   1.0000   1.0000
     1.0000   1.0000   1.0000   1.0000   1.0000   1.0000   1.0000   1.0000
     1.0000   1.0000   1.0000   1.0000   1.0000   1.0000   1.0000   1.0000
     1.0000   1.0000   1.0000   1.0000   1.0000   1.0000   1.0000   1.0000
     1.0000   1.0000   1.0000   1.0000   1.0000   1.0000   1.0000   1.0000
     1.0000   1.0000   1.0000   1.0000   1.0000   1.0000   1.0000   1.0000
     1.0000   1.0000   1.0000   1.0000   1.0000   1.0000   1.0000   1.0000
     1.0000   1.0000   1.0000   1.0000   1.0000   1.0000   1.0000   1.0000
     1.0000   1.0000   1.0000   1.0000   1.0000   1.0000   1.0000   1.0000
     1.0000   1.0000   1.0000   1.0000   1.0000   1.0000   1.0000   1.0000
     1.0000   1.0000   1.0000   1.0000   1.0000   1.0000   1.0000   1.0000
     1.0000   1.0000   1.0000   1.0000   1.0000   1.0000   1.0000   1.0000
     1.0000   1.0000   1.0000   1.0000   1.0000   1.0000   1.0000   1.0000
     0.0000   0.0000   0.0000   0.0000   0.0000   0.0000   0.0000   0.0000
     0.0000   0.0000

          k = 0.0000 0.4781 0.4441 ( 32922 PWs)   bands (ev):

   -83.6844 -83.6837 -83.6811 -83.6804 -49.8771 -49.8765 -49.8191 -49.8185
   -49.6612 -49.6605 -49.6128 -49.6119 -49.5759 -49.5752 -49.5709 -49.5702
   -43.4076 -15.7974 -15.7172 -15.5445 -15.4322 -15.4041 -15.3470 -15.1581
   -13.2398 -13.1300 -13.0734 -13.0279 -12.7759 -12.7346 -12.6928 -12.5767
   -12.5011 -12.4759 -12.4234 -12.3970  -3.0038  -2.7417  -2.4331  -2.1878
    -1.2723  -1.0999  -1.0064  -0.9199  -0.6841  -0.6354  -0.4471  -0.2577
    -0.1161  -0.1042  -0.0093   0.1563   0.5215   0.7293   0.9419   1.0556
     1.2235   1.3772   1.4611   1.5451   1.6332   1.7642   2.0301   2.0464
     2.0840   2.1485   2.2924   2.4089   2.4901   2.6192   2.6660   2.7293
     2.8387   3.0603   3.1846   3.2833   3.3606   3.3784   3.4398   3.5191
     3.6751   3.8915   3.9179   3.9667   4.0096   4.1718   4.2389   4.3165
     4.3320   4.4854   4.7120   4.8256   4.9735   5.0138   5.1370   5.1879
     5.2402   5.2996   5.4011   5.5437   5.9956   6.2720   6.4462   6.4675
    12.1151  13.6400  13.7371  13.8977  14.3857  14.6144  14.7068  14.8647
    14.9059  15.2292

     occupation numbers 
     1.0000   1.0000   1.0000   1.0000   1.0000   1.0000   1.0000   1.0000
     1.0000   1.0000   1.0000   1.0000   1.0000   1.0000   1.0000   1.0000
     1.0000   1.0000   1.0000   1.0000   1.0000   1.0000   1.0000   1.0000
     1.0000   1.0000   1.0000   1.0000   1.0000   1.0000   1.0000   1.0000
     1.0000   1.0000   1.0000   1.0000   1.0000   1.0000   1.0000   1.0000
     1.0000   1.0000   1.0000   1.0000   1.0000   1.0000   1.0000   1.0000
     1.0000   1.0000   1.0000   1.0000   1.0000   1.0000   1.0000   1.0000
     1.0000   1.0000   1.0000   1.0000   1.0000   1.0000   1.0000   1.0000
     1.0000   1.0000   1.0000   1.0000   1.0000   1.0000   1.0000   1.0000
     1.0000   1.0000   1.0000   1.0000   1.0000   1.0000   1.0000   1.0000
     1.0000   1.0000   1.0000   1.0000   1.0000   1.0000   1.0000   1.0000
     1.0000   1.0000   1.0000   1.0000   1.0000   1.0000   1.0000   1.0000
     1.0000   1.0000   1.0000   1.0000   1.0000   1.0000   1.0000   1.0000
     0.0000   0.0000   0.0000   0.0000   0.0000   0.0000   0.0000   0.0000
     0.0000   0.0000

          k = 0.0000 0.4781 0.6661 ( 32937 PWs)   bands (ev):

   -83.6844 -83.6837 -83.6811 -83.6804 -49.8771 -49.8765 -49.8191 -49.8185
   -49.6612 -49.6605 -49.6128 -49.6119 -49.5759 -49.5752 -49.5709 -49.5702
[...]
     atom    9 type  4   force =     0.03641031   -0.00790991   -0.08585433
     atom   10 type  3   force =    -0.02844027   -0.00078689   -0.01436629
     atom   11 type  3   force =     0.02123798   -0.00376999   -0.01102961
     atom   12 type  3   force =     0.02844027    0.00078689    0.01436629
     atom   13 type  3   force =    -0.02123798    0.00376999    0.01102961
     atom   14 type  3   force =    -0.11246141   -0.00101300    0.03247353
     atom   15 type  3   force =     0.10795085    0.00117235    0.03924579
     atom   16 type  3   force =     0.11246141    0.00101300   -0.03247353
     atom   17 type  3   force =    -0.10795085   -0.00117235   -0.03924579
     atom   18 type  3   force =     0.03755860    0.08255500   -0.03216172
     atom   19 type  3   force =    -0.03965540   -0.08526354   -0.03796751
     atom   20 type  3   force =    -0.03955517    0.08495981    0.03169947
     atom   21 type  3   force =     0.04134161   -0.08470834    0.02934072
     atom   22 type  3   force =    -0.03755860   -0.08255500    0.03216172
     atom   23 type  3   force =     0.03965540    0.08526354    0.03796751
     atom   24 type  3   force =     0.03955517   -0.08495981   -0.03169947
     atom   25 type  3   force =    -0.04134161    0.08470834   -0.02934072
     The non-local contrib.  to forces
     atom    1 type  2   force =     0.00000000    0.00000000    0.00000000
     atom    2 type  1   force =     0.06882604   -0.06060249    0.16062992
     atom    3 type  1   force =     0.10351426    0.00628951    0.14110845
     atom    4 type  1   force =    -0.06882604    0.06060249   -0.16062992
     atom    5 type  1   force =    -0.10351426   -0.00628951   -0.14110845
     atom    6 type  4   force =     0.02513523    0.00442149    0.05491881
     atom    7 type  4   force =    -0.01554264    0.01049441    0.07737222
     atom    8 type  4   force =    -0.02513523   -0.00442149   -0.05491881
     atom    9 type  4   force =     0.01554264   -0.01049441   -0.07737222
     atom   10 type  3   force =     0.31098976    0.02001729   -1.46053438
     atom   11 type  3   force =    -0.18345723    0.02276930   -1.42630825
     atom   12 type  3   force =    -0.31098976   -0.02001729    1.46053438
     atom   13 type  3   force =     0.18345723   -0.02276930    1.42630825
     atom   14 type  3   force =     1.16412843    0.02198274   -0.60116298
     atom   15 type  3   force =    -1.13854392   -0.01239091   -0.70313522
     atom   16 type  3   force =    -1.16412843   -0.02198274    0.60116298
     atom   17 type  3   force =     1.13854392    0.01239091    0.70313522
     atom   18 type  3   force =    -0.52006704   -1.00373416    0.78983295
     atom   19 type  3   force =     0.57262923    1.01755943    0.86332160
     atom   20 type  3   force =     0.55872491   -1.02802320   -0.80186650
     atom   21 type  3   force =    -0.61458502    1.02481523   -0.73164343
     atom   22 type  3   force =     0.52006704    1.00373416   -0.78983295
     atom   23 type  3   force =    -0.57262923   -1.01755943   -0.86332160
     atom   24 type  3   force =    -0.55872491    1.02802320    0.80186650
     atom   25 type  3   force =     0.61458502   -1.02481523    0.73164343
     The ionic contribution  to forces
     atom    1 type  2   force =    -0.00000663    0.00005452   -0.00003973
     atom    2 type  1   force =    -3.77427003    0.89797825   -0.49731610
     atom    3 type  1   force =    -8.24563393   -1.85940168   -0.48041876
     atom    4 type  1   force =     3.77402317   -0.89793916    0.49717233
     atom    5 type  1   force =     8.24572835    1.85964954    0.48036533
     atom    6 type  4   force =    -3.74000700    0.05661618    1.18592514
     atom    7 type  4   force =     0.83834189   -1.45445420    1.76429029
     atom    8 type  4   force =     3.74006285   -0.05661747   -1.18605319
     atom    9 type  4   force =    -0.83849320    1.45444089   -1.76394242
     atom   10 type  3   force =   -11.65244108   -0.07830809    2.56627150
     atom   11 type  3   force =     6.16077906   -2.66008485    1.35917261
     atom   12 type  3   force =    11.65261947    0.07829104   -2.56597571
     atom   13 type  3   force =    -6.16071647    2.66006827   -1.35955406
     atom   14 type  3   force =     0.56959334    2.45390276    4.70993879
     atom   15 type  3   force =    -3.05352282    0.10366182    7.31550157
     atom   16 type  3   force =    -0.56918539   -2.45390521   -4.70982857
     atom   17 type  3   force =     3.05338373   -0.10361919   -7.31546912
     atom   18 type  3   force =    -4.52232476    3.03169939   -3.29912873
     atom   19 type  3   force =     1.03473081   -2.59512739   -3.66433172
     atom   20 type  3   force =     5.04195979    3.17255875    3.44648060
     atom   21 type  3   force =     1.74535866   -2.90666678    1.00880289
     atom   22 type  3   force =     4.52230975   -3.03193301    3.29900626
     atom   23 type  3   force =    -1.03485459    2.59496015    3.66443783
     atom   24 type  3   force =    -5.04191289   -3.17254171   -3.44647417
     atom   25 type  3   force =    -1.74552209    2.90671719   -1.00883287
     The local contribution  to forces
     atom    1 type  2   force =    -0.00435720   -0.00171002   -0.00226335
     atom    2 type  1   force =     3.68378617   -0.85296644    0.33099773
     atom    3 type  1   force =     8.16130367    1.84969595    0.33008256
     atom    4 type  1   force =    -3.70507501    0.84230795   -0.34141572
     atom    5 type  1   force =    -8.17891242   -1.85790347   -0.34116353
     atom    6 type  4   force =     3.76709507   -0.06109586   -1.15081865
     atom    7 type  4   force =    -0.86095211    1.45215231   -1.74658651
     atom    8 type  4   force =    -3.76697015    0.06102553    1.15066811
     atom    9 type  4   force =     0.86107131   -1.45207325    1.74669909
     atom   10 type  3   force =    11.31441753    0.05639724   -1.13320625
     atom   11 type  3   force =    -5.96051445    2.63254744    0.04170293
     atom   12 type  3   force =   -11.31784104   -0.05895108    1.13217117
     atom   13 type  3   force =     5.95557878   -2.63478823   -0.04536142
     atom   14 type  3   force =    -1.83931168   -2.47799592   -4.08268766
     atom   15 type  3   force =     4.29023583   -0.09148593   -6.58057174
     atom   16 type  3   force =     1.83642606    2.47531671    4.08025182
     atom   17 type  3   force =    -4.29364591    0.08885816    6.57756199
     atom   18 type  3   force =     5.07340590   -1.95394582    2.48234929
     atom   19 type  3   force =    -1.64512908    1.49856915    2.76914976
     atom   20 type  3   force =    -5.63864780   -2.06845698   -2.62103842
     atom   21 type  3   force =    -1.09665989    1.80383242   -0.25507321
     atom   22 type  3   force =    -5.07863782    1.95201779   -2.48484464
     atom   23 type  3   force =     1.64034101   -1.50081194   -2.77142073
     atom   24 type  3   force =     5.63325203    2.06597998    2.61805467
     atom   25 type  3   force =     1.09173595   -1.80594508    0.25280696
     The core correction contribution to forces
     atom    1 type  2   force =     0.00000000    0.00000000    0.00000000
     atom    2 type  1   force =    -0.00087894    0.00101973   -0.00024254
     atom    3 type  1   force =    -0.00073731   -0.00010536    0.00104410
     atom    4 type  1   force =     0.00160567   -0.00065829    0.00059262
     atom    5 type  1   force =     0.00133291    0.00040029   -0.00067878
     atom    6 type  4   force =    -0.00208175   -0.00020641   -0.00671519
     atom    7 type  4   force =     0.00173840   -0.00024586   -0.00898963
     atom    8 type  4   force =     0.00210013    0.00021293    0.00672388
     atom    9 type  4   force =    -0.00171724    0.00025395    0.00899297
     atom   10 type  3   force =    -0.00302696   -0.00017934    0.01273359
     atom   11 type  3   force =     0.00199499   -0.00013151    0.01237973
     atom   12 type  3   force =     0.00302330    0.00017791   -0.01273720
     atom   13 type  3   force =    -0.00199801    0.00013006   -0.01238420
     atom   14 type  3   force =    -0.00811457   -0.00024424    0.00522032
     atom   15 type  3   force =     0.00800503    0.00009397    0.00596296
     atom   16 type  3   force =     0.00810966    0.00024249   -0.00522172
     atom   17 type  3   force =    -0.00801080   -0.00009573   -0.00596493
     atom   18 type  3   force =     0.00392330    0.00745198   -0.00652713
     atom   19 type  3   force =    -0.00434343   -0.00747421   -0.00719076
     atom   20 type  3   force =    -0.00427179    0.00764977    0.00663712
     atom   21 type  3   force =     0.00468102   -0.00772316    0.00610299
     atom   22 type  3   force =    -0.00392677   -0.00745602    0.00652593
     atom   23 type  3   force =     0.00433861    0.00747032    0.00718702
     atom   24 type  3   force =     0.00426929   -0.00765119   -0.00663812
     atom   25 type  3   force =    -0.00468464    0.00772168   -0.00610722
     The Hubbard contrib.    to forces
     atom    1 type  2   force =     0.00000000    0.00000000    0.00000000
     atom    2 type  1   force =     0.00000000    0.00000000    0.00000000
     atom    3 type  1   force =     0.00000000    0.00000000    0.00000000
     atom    4 type  1   force =     0.00000000    0.00000000    0.00000000
     atom    5 type  1   force =     0.00000000    0.00000000    0.00000000
     atom    6 type  4   force =     0.00000000    0.00000000    0.00000000
     atom    7 type  4   force =     0.00000000    0.00000000    0.00000000
     atom    8 type  4   force =     0.00000000    0.00000000    0.00000000
     atom    9 type  4   force =     0.00000000    0.00000000    0.00000000
     atom   10 type  3   force =     0.00000000    0.00000000    0.00000000
     atom   11 type  3   force =     0.00000000    0.00000000    0.00000000
     atom   12 type  3   force =     0.00000000    0.00000000    0.00000000
     atom   13 type  3   force =     0.00000000    0.00000000    0.00000000
     atom   14 type  3   force =     0.00000000    0.00000000    0.00000000
     atom   15 type  3   force =     0.00000000    0.00000000    0.00000000
     atom   16 type  3   force =     0.00000000    0.00000000    0.00000000
     atom   17 type  3   force =     0.00000000    0.00000000    0.00000000
     atom   18 type  3   force =     0.00000000    0.00000000    0.00000000
     atom   19 type  3   force =     0.00000000    0.00000000    0.00000000
     atom   20 type  3   force =     0.00000000    0.00000000    0.00000000
     atom   21 type  3   force =     0.00000000    0.00000000    0.00000000
     atom   22 type  3   force =     0.00000000    0.00000000    0.00000000
     atom   23 type  3   force =     0.00000000    0.00000000    0.00000000
     atom   24 type  3   force =     0.00000000    0.00000000    0.00000000
     atom   25 type  3   force =     0.00000000    0.00000000    0.00000000
     The SCF correction term to forces
     atom    1 type  2   force =    -0.00000000   -0.00000000   -0.00000000
     atom    2 type  1   force =    -0.00000653   -0.00000062   -0.00000037
     atom    3 type  1   force =    -0.00000918    0.00000035   -0.00000070
     atom    4 type  1   force =     0.00000653    0.00000062    0.00000038
     atom    5 type  1   force =     0.00000917   -0.00000035    0.00000070
     atom    6 type  4   force =    -0.00000226   -0.00000007    0.00000028
     atom    7 type  4   force =    -0.00000133    0.00000017   -0.00000015
     atom    8 type  4   force =     0.00000226    0.00000007   -0.00000028
     atom    9 type  4   force =     0.00000133   -0.00000017    0.00000015
     atom   10 type  3   force =    -0.00000391   -0.00000014   -0.00000221
     atom   11 type  3   force =    -0.00000244    0.00000022    0.00000116
     atom   12 type  3   force =     0.00000391    0.00000014    0.00000221
     atom   13 type  3   force =     0.00000244   -0.00000022   -0.00000116
     atom   14 type  3   force =     0.00000177   -0.00000005    0.00000155
     atom   15 type  3   force =    -0.00000075   -0.00000005   -0.00000142
     atom   16 type  3   force =    -0.00000177    0.00000005   -0.00000155
     atom   17 type  3   force =     0.00000075    0.00000005    0.00000142
     atom   18 type  3   force =    -0.00000400    0.00000077    0.00000238
     atom   19 type  3   force =    -0.00000126    0.00000253   -0.00000069
     atom   20 type  3   force =     0.00000404    0.00000079   -0.00000249
     atom   21 type  3   force =     0.00000135    0.00000208    0.00000125
     atom   22 type  3   force =     0.00000400   -0.00000077   -0.00000238
     atom   23 type  3   force =     0.00000126   -0.00000253    0.00000069
     atom   24 type  3   force =    -0.00000404   -0.00000079    0.00000249
     atom   25 type  3   force =    -0.00000135   -0.00000208   -0.00000125

     Total force =     0.416589     Total SCF correction =     0.000022


     Computing stress (Cartesian axis) and pressure


     negative rho (up, down):  0.000E+00 1.046E-03
          total   stress  (Ry/bohr**3)                   (kbar)     P=      168.23
   0.00158806   0.00006199  -0.00004369          233.61        9.12       -6.43
   0.00006199   0.00132367  -0.00002640            9.12      194.72       -3.88
  -0.00004369  -0.00002640   0.00051901           -6.43       -3.88       76.35

     kinetic stress (kbar)  29726.27    -17.80      2.85
                              -17.80  29926.28      0.44
                                2.85      0.44  29569.47

     local   stress (kbar)  -4334.97  -3249.65   1086.23
                            -3249.65 -15422.82   1087.95
                             1086.23   1087.95  -6545.35

     nonloc. stress (kbar)  -7604.57     -1.16      2.25
                               -1.16  -7540.10      2.75
                                2.25      2.75  -7547.86

     hartree stress (kbar)  13709.21   1301.30   -411.50
                             1301.30  19655.02   -434.54
                             -411.50   -434.54  15439.40

     exc-cor stress (kbar)  -3135.32      1.89     -0.77
                                1.89  -3142.44     -0.40
                               -0.77     -0.40  -3140.86

     corecor stress (kbar)  -3457.54     -0.89      0.48
                               -0.89  -3455.32     -0.02
                                0.48     -0.02  -3455.64

     ewald   stress (kbar) -24669.47   1975.42   -685.97
                             1975.42 -19825.90   -660.06
                             -685.97   -660.06 -24242.81

     hubbard stress (kbar)      0.00      0.00      0.00
                                0.00      0.00      0.00
                                0.00      0.00      0.00

     DFT-D   stress (kbar)      0.00      0.00      0.00
                                0.00      0.00      0.00
                                0.00      0.00      0.00

     XDM     stress (kbar)      0.00      0.00      0.00
                                0.00      0.00      0.00
                                0.00      0.00      0.00

     dft-nl  stress (kbar)      0.00      0.00      0.00
                                0.00      0.00      0.00
                                0.00      0.00      0.00

     TS-vdW  stress (kbar)      0.00      0.00      0.00
                                0.00      0.00      0.00
                                0.00      0.00      0.00



     init_run     :   2055.05s CPU   2468.17s WALL (       1 calls)
     electrons    : 102061.55s CPU 126224.78s WALL (       1 calls)
     forces       :    271.35s CPU    321.18s WALL (       1 calls)
     stress       :   1304.44s CPU   1607.04s WALL (       1 calls)

     Called by init_run:
     wfcinit      :   2037.33s CPU   2441.85s WALL (       1 calls)
     wfcinit:atom :      2.19s CPU      2.57s WALL (     316 calls)
     wfcinit:wfcr :   2025.79s CPU   2428.23s WALL (     316 calls)
     potinit      :      7.02s CPU     10.05s WALL (       1 calls)
     hinit0       :      6.24s CPU      9.73s WALL (       1 calls)

     Called by electrons:
     c_bands      :  87137.11s CPU 107977.24s WALL (      22 calls)
     sum_band     :  14747.19s CPU  18022.22s WALL (      22 calls)
     v_of_rho     :     50.68s CPU     60.02s WALL (      23 calls)
     v_h          :      3.45s CPU      4.18s WALL (      23 calls)
     v_xc         :     51.03s CPU     60.82s WALL (      25 calls)
     newd         :     70.39s CPU     98.88s WALL (      23 calls)
     PAW_pot      :     22.62s CPU     27.65s WALL (      23 calls)
     mix_rho      :     28.21s CPU     33.39s WALL (      22 calls)

     Called by c_bands:
     init_us_2    :    180.60s CPU    229.53s WALL (   14852 calls)
     cegterg      :  86374.00s CPU 107011.12s WALL (    6952 calls)

     Called by sum_band:
     sum_band:wei :      0.38s CPU      0.49s WALL (      22 calls)
     sum_band:loo :  14562.20s CPU  17787.11s WALL (      22 calls)
     sum_band:buf :     52.30s CPU     59.52s WALL (    6952 calls)
     sum_band:ini :     77.02s CPU     97.35s WALL (    6952 calls)
     sum_band:cal :   1168.64s CPU   1397.07s WALL (    6952 calls)
     sum_band:bec :      6.08s CPU      6.69s WALL (    6952 calls)
     addusdens    :    152.48s CPU    199.58s WALL (      22 calls)
     addusd:skk   :      0.98s CPU      1.20s WALL (      66 calls)
     addusd:dgemm :     48.33s CPU     75.44s WALL (     132 calls)
     addusd:qvan2 :    100.89s CPU    118.52s WALL (     132 calls)

     Called by *egterg:
     cdiaghg      :   2503.13s CPU   3116.08s WALL (   32168 calls)
     cegterg:over :   4140.61s CPU   5017.25s WALL (   25216 calls)
     cegterg:upda :    949.57s CPU   1157.57s WALL (   25216 calls)
     cegterg:last :   2131.21s CPU   2605.05s WALL (   14405 calls)
     h_psi        :  73470.08s CPU  91270.03s WALL (   32484 calls)
     s_psi        :   1869.83s CPU   2269.53s WALL (   32484 calls)
     g_psi        :     16.35s CPU     19.66s WALL (   25216 calls)

     Called by h_psi:
     h_psi:calbec :   3619.67s CPU   4362.30s WALL (   32484 calls)
     vloc_psi     :  67783.47s CPU  84343.20s WALL (   32484 calls)
     add_vuspsi   :   1979.45s CPU   2459.59s WALL (   32484 calls)

     General routines
     calbec       :   5144.13s CPU   6176.71s WALL (   41016 calls)
     fft          :     58.58s CPU     70.92s WALL (     613 calls)
     ffts         :      6.16s CPU      7.45s WALL (      90 calls)
     fftw         :  80760.74s CPU 100282.56s WALL ( 4758572 calls)
     interpolate  :      7.41s CPU      8.83s WALL (      46 calls)

     Parallel routines
     fft_scatt_xy :    317.38s CPU    326.45s WALL ( 4759275 calls)
     fft_scatt_yz :  78747.71s CPU  98183.59s WALL ( 4759275 calls)

     PAW routines
     PAW_pot      :     22.62s CPU     27.65s WALL (      23 calls)
     PAW_symme    :      1.76s CPU      2.19s WALL (      45 calls)

     PWSCF        :   1d 5h21m CPU   1d12h17m WALL


   This run was terminated on:  16:48:56  21Dec2022            

=------------------------------------------------------------------------------=
   JOB DONE.
=------------------------------------------------------------------------------=
Note: The following floating-point exceptions are signalling: IEEE_DENORMAL
Note: The following floating-point exceptions are signalling: IEEE_DENORMAL
Note: The following floating-point exceptions are signalling: IEEE_DENORMAL
Note: The following floating-point exceptions are signalling: IEEE_DENORMAL
Note: The following floating-point exceptions are signalling: IEEE_DENORMAL
Note: The following floating-point exceptions are signalling: IEEE_DENORMAL
Note: The following floating-point exceptions are signalling: IEEE_DENORMAL
Note: The following floating-point exceptions are signalling: IEEE_DENORMAL
Note: The following floating-point exceptions are signalling: IEEE_UNDERFLOW_FLAG IEEE_DENORMAL
