
     Program PWSCF v.6.7MaX starts on 23Dec2022 at 16: 0:16 

     This program is part of the open-source Quantum ESPRESSO suite
     for quantum simulation of materials; please cite
         "P. Giannozzi et al., J. Phys.:Condens. Matter 21 395502 (2009);
         "P. Giannozzi et al., J. Phys.:Condens. Matter 29 465901 (2017);
          URL http://www.quantum-espresso.org", 
     in publications or presentations arising from this work. More details at
     http://www.quantum-espresso.org/quote

     Parallel version (MPI), running on    12 processors

     MPI processes distributed on     1 nodes
     R & G space division:  proc/nbgrp/npool/nimage =      12
     Reading input from scale_3d-01.in

     Current dimensions of program PWSCF are:
     Max number of different atomic species (ntypx) = 10
     Max number of k-points (npk) =  40000
     Max angular momentum in pseudopotentials (lmaxx) =  3
     Message from routine read_pp_mesh:
     mesh size missing, using the one in header
     file Fe.pbe-spn-kjpaw_psl.0.2.1.UPF: wavefunction(s)  3D renormalized
     file O.pbe-n-kjpaw_psl.0.1.UPF: wavefunction(s)  2P renormalized

     Subspace diagonalization in iterative solution of the eigenvalue problem:
     a serial algorithm will be used

     Message from routine setup:
     using ibrav=0 with symmetry is DISCOURAGED, use correct ibrav instead

     Parallelization info
     --------------------
     sticks:   dense  smooth     PW     G-vecs:    dense   smooth      PW
     Min        1546     574    155                97469    21966    3095
     Max        1548     575    156                97470    21968    3096
     Sum       18565    6893   1863              1169635   263601   37143



     bravais-lattice index     =            0
     lattice parameter (alat)  =      19.0096  a.u.
     unit-cell volume          =    1951.4432 (a.u.)^3
     number of atoms/cell      =           25
     number of atomic types    =            4
     number of electrons       =       189.00
     number of Kohn-Sham states=          114
     kinetic-energy cutoff     =     100.0000  Ry
     charge density cutoff     =    1080.0000  Ry
     scf convergence threshold =      2.0E-10
     mixing beta               =       0.4000
     number of iterations used =            8  plain     mixing
     Exchange-correlation= PBE
                           (   1   4   3   4   0   0   0)

     celldm(1)=  19.009555  celldm(2)=   0.000000  celldm(3)=   0.000000
     celldm(4)=   0.000000  celldm(5)=   0.000000  celldm(6)=   0.000000

     crystal axes: (cart. coord. in units of alat)
               a(1) = (   1.000000   0.000000   0.000000 )  
               a(2) = (   0.000000   0.597590   0.000000 )  
               a(3) = (   0.000000   0.000000   0.475375 )  

     reciprocal axes: (cart. coord. in units 2 pi/alat)
               b(1) = (  1.000000  0.000000  0.000000 )  
               b(2) = (  0.000000  1.673388  0.000000 )  
               b(3) = (  0.000000  0.000000  2.103600 )  


     PseudoPot. # 1 for Fe read from file:
     /opt/QEpot/SSSP_precision_pseudos/Fe.pbe-spn-kjpaw_psl.0.2.1.UPF
     MD5 check sum: e86618425769142926afa95317d90200
     Pseudo is Projector augmented-wave + core cor, Zval = 16.0
     Generated using "atomic" code by A. Dal Corso  v.5.0.99 svn rev. 10869
     Shape of augmentation charge: PSQ
     Using radial grid of 1191 points,  6 beta functions with: 
                l(1) =   0
                l(2) =   0
                l(3) =   1
                l(4) =   1
                l(5) =   2
                l(6) =   2
     Q(r) pseudized with 0 coefficients 


     PseudoPot. # 2 for Na read from file:
     /opt/QEpot/SSSP_precision_pseudos/Na_ONCV_PBE-1.0.oncvpsp.upf
     MD5 check sum: 24a298df0a6742ae313db96548fdb2a4
     Pseudo is Norm-conserving, Zval =  9.0
     Generated using ONCVPSP code by D. R. Hamann
     Using radial grid of 1992 points,  4 beta functions with: 
                l(1) =   0
                l(2) =   0
                l(3) =   1
                l(4) =   1

     PseudoPot. # 3 for O  read from file:
     /opt/QEpot/SSSP_precision_pseudos/O.pbe-n-kjpaw_psl.0.1.UPF
     MD5 check sum: 0234752ac141de4415c5fc33072bef88
     Pseudo is Projector augmented-wave + core cor, Zval =  6.0
     Generated using "atomic" code by A. Dal Corso  v.5.0.99 svn rev. 10869
     Shape of augmentation charge: BESSEL
     Using radial grid of 1095 points,  4 beta functions with: 
                l(1) =   0
                l(2) =   0
                l(3) =   1
                l(4) =   1
     Q(r) pseudized with 0 coefficients 


     PseudoPot. # 4 for P  read from file:
     /opt/QEpot/SSSP_precision_pseudos/P.pbe-n-rrkjus_psl.1.0.0.UPF
     MD5 check sum: 8b930f418f0a4573dca56cd030ffe088
     Pseudo is Ultrasoft + core correction, Zval =  5.0
     Generated using "atomic" code by A. Dal Corso  v.5.1
     Using radial grid of 1147 points,  6 beta functions with: 
                l(1) =   0
                l(2) =   0
                l(3) =   1
                l(4) =   1
                l(5) =   2
                l(6) =   2
     Q(r) pseudized with 0 coefficients 


     atomic species   valence    mass     pseudopotential
        Fe            16.00    55.84500     Fe( 1.00)
        Na             9.00    22.98977     Na( 1.00)
        O              6.00    15.99940     O ( 1.00)
        P              5.00    30.97376     P ( 1.00)

     Starting magnetic structure 
     atomic species   magnetization
        Fe           0.312
        Na           0.000
        O            0.000
        P            0.000

      2 Sym. Ops., with inversion, found


                                    s                        frac. trans.

      isym =  1     identity                                     

 cryst.   s( 1) = (     1          0          0      )
                  (     0          1          0      )
                  (     0          0          1      )

 cart.    s( 1) = (  1.0000000  0.0000000  0.0000000 )
                  (  0.0000000  1.0000000  0.0000000 )
                  (  0.0000000  0.0000000  1.0000000 )


      isym =  2     inversion                                    

 cryst.   s( 2) = (    -1          0          0      )
                  (     0         -1          0      )
                  (     0          0         -1      )

 cart.    s( 2) = ( -1.0000000  0.0000000  0.0000000 )
                  (  0.0000000 -1.0000000  0.0000000 )
                  (  0.0000000  0.0000000 -1.0000000 )


   Cartesian axes

     site n.     atom                  positions (alat units)
         1           Na  tau(   1) = (   0.5000030   0.2987962   0.2376892  )
         2           Fe  tau(   2) = (   0.2766340   0.4509067   0.4732563  )
         3           Fe  tau(   3) = (   0.2132450   0.1472796   0.2329597  )
         4           Fe  tau(   4) = (   0.7233720   0.1466862   0.0021221  )
         5           Fe  tau(   5) = (   0.7867600   0.4503127   0.2424187  )
         6           P   tau(   6) = (   0.1084050   0.4475052   0.2115882  )
         7           P   tau(   7) = (   0.3919000   0.1469754   0.4493881  )
         8           P   tau(   8) = (   0.8916010   0.1500877   0.2637906  )
         9           P   tau(   9) = (   0.6081070   0.4506175   0.0259883  )
        10           O   tau(  10) = (   0.1318760   0.4471825   0.3577386  )
        11           O   tau(  11) = (   0.3711480   0.1517090   0.1209175  )
        12           O   tau(  12) = (   0.8681290   0.1504104   0.1176393  )
        13           O   tau(  13) = (   0.6288580   0.4458840   0.3544623  )
        14           O   tau(  14) = (   0.4620270   0.4452021   0.0583652  )
        15           O   tau(  15) = (   0.0373160   0.1503453   0.2927600  )
        16           O   tau(  16) = (   0.5379780   0.1523908   0.4170132  )
        17           O   tau(  17) = (   0.9626900   0.4472477   0.1826183  )
        18           O   tau(  18) = (   0.1786770   0.5646908   0.1443392  )
        19           O   tau(  19) = (   0.3223210   0.0298072   0.3843658  )
        20           O   tau(  20) = (   0.8194080   0.2651781   0.3318539  )
        21           O   tau(  21) = (   0.6766380   0.3344526   0.0973065  )
        22           O   tau(  22) = (   0.8213290   0.0329027   0.3310391  )
        23           O   tau(  23) = (   0.6776850   0.5677863   0.0910125  )
        24           O   tau(  24) = (   0.1805980   0.3324148   0.1435244  )
        25           O   tau(  25) = (   0.3233680   0.2631404   0.3780723  )

   Crystallographic axes

     site n.     atom                  positions (cryst. coord.)
         1           Na  tau(   1) = (  0.5000030  0.5000020  0.5000030  )
         2           Fe  tau(   2) = (  0.2766340  0.7545420  0.9955420  )
         3           Fe  tau(   3) = (  0.2132450  0.2464560  0.4900540  )
         4           Fe  tau(   4) = (  0.7233720  0.2454630  0.0044640  )
         5           Fe  tau(   5) = (  0.7867600  0.7535480  0.5099520  )
         6           P   tau(   6) = (  0.1084050  0.7488500  0.4450970  )
         7           P   tau(   7) = (  0.3919000  0.2459470  0.9453330  )
         8           P   tau(   8) = (  0.8916010  0.2511550  0.5549100  )
         9           P   tau(   9) = (  0.6081070  0.7540580  0.0546690  )
        10           O   tau(  10) = (  0.1318760  0.7483100  0.7525390  )
        11           O   tau(  11) = (  0.3711480  0.2538680  0.2543620  )
        12           O   tau(  12) = (  0.8681290  0.2516950  0.2474660  )
        13           O   tau(  13) = (  0.6288580  0.7461370  0.7456470  )
        14           O   tau(  14) = (  0.4620270  0.7449960  0.1227770  )
        15           O   tau(  15) = (  0.0373160  0.2515860  0.6158500  )
        16           O   tau(  16) = (  0.5379780  0.2550090  0.8772290  )
        17           O   tau(  17) = (  0.9626900  0.7484190  0.3841560  )
        18           O   tau(  18) = (  0.1786770  0.9449470  0.3036320  )
        19           O   tau(  19) = (  0.3223210  0.0498790  0.8085520  )
        20           O   tau(  20) = (  0.8194080  0.4437460  0.6980880  )
        21           O   tau(  21) = (  0.6766380  0.5596690  0.2046940  )
        22           O   tau(  22) = (  0.8213290  0.0550590  0.6963740  )
        23           O   tau(  23) = (  0.6776850  0.9501270  0.1914540  )
        24           O   tau(  24) = (  0.1805980  0.5562590  0.3019180  )
        25           O   tau(  25) = (  0.3233680  0.4403360  0.7953130  )

     number of k points=   158  Marzari-Vanderbilt smearing, width (Ry)=  0.0073
                       cart. coord. in units 2pi/alat
        k(    1) = (   0.0000000   0.0000000   0.0000000), wk =   0.0031746
        k(    2) = (   0.0000000   0.0000000   0.2337334), wk =   0.0063492
        k(    3) = (   0.0000000   0.0000000   0.4674667), wk =   0.0063492
        k(    4) = (   0.0000000   0.0000000   0.7012001), wk =   0.0063492
        k(    5) = (   0.0000000   0.0000000   0.9349334), wk =   0.0063492
        k(    6) = (   0.0000000   0.2390555   0.0000000), wk =   0.0063492
        k(    7) = (   0.0000000   0.2390555   0.2337334), wk =   0.0063492
        k(    8) = (   0.0000000   0.2390555   0.4674667), wk =   0.0063492
        k(    9) = (   0.0000000   0.2390555   0.7012001), wk =   0.0063492
        k(   10) = (   0.0000000   0.2390555   0.9349334), wk =   0.0063492
        k(   11) = (   0.0000000   0.4781110   0.0000000), wk =   0.0063492
        k(   12) = (   0.0000000   0.4781110   0.2337334), wk =   0.0063492
        k(   13) = (   0.0000000   0.4781110   0.4674667), wk =   0.0063492
        k(   14) = (   0.0000000   0.4781110   0.7012001), wk =   0.0063492
        k(   15) = (   0.0000000   0.4781110   0.9349334), wk =   0.0063492
        k(   16) = (   0.0000000   0.7171664   0.0000000), wk =   0.0063492
        k(   17) = (   0.0000000   0.7171664   0.2337334), wk =   0.0063492
        k(   18) = (   0.0000000   0.7171664   0.4674667), wk =   0.0063492
        k(   19) = (   0.0000000   0.7171664   0.7012001), wk =   0.0063492
        k(   20) = (   0.0000000   0.7171664   0.9349334), wk =   0.0063492
        k(   21) = (   0.2000000   0.0000000   0.0000000), wk =   0.0063492
        k(   22) = (   0.2000000   0.0000000   0.2337334), wk =   0.0063492
        k(   23) = (   0.2000000   0.0000000   0.4674667), wk =   0.0063492
        k(   24) = (   0.2000000   0.0000000   0.7012001), wk =   0.0063492
        k(   25) = (   0.2000000   0.0000000   0.9349334), wk =   0.0063492
        k(   26) = (   0.2000000   0.2390555   0.0000000), wk =   0.0063492
        k(   27) = (   0.2000000   0.2390555   0.2337334), wk =   0.0063492
        k(   28) = (   0.2000000   0.2390555   0.4674667), wk =   0.0063492
        k(   29) = (   0.2000000   0.2390555   0.7012001), wk =   0.0063492
        k(   30) = (   0.2000000   0.2390555   0.9349334), wk =   0.0063492
        k(   31) = (   0.2000000   0.4781110   0.0000000), wk =   0.0063492
        k(   32) = (   0.2000000   0.4781110   0.2337334), wk =   0.0063492
        k(   33) = (   0.2000000   0.4781110   0.4674667), wk =   0.0063492
        k(   34) = (   0.2000000   0.4781110   0.7012001), wk =   0.0063492
        k(   35) = (   0.2000000   0.4781110   0.9349334), wk =   0.0063492
        k(   36) = (   0.2000000   0.7171664   0.0000000), wk =   0.0063492
        k(   37) = (   0.2000000   0.7171664   0.2337334), wk =   0.0063492
        k(   38) = (   0.2000000   0.7171664   0.4674667), wk =   0.0063492
        k(   39) = (   0.2000000   0.7171664   0.7012001), wk =   0.0063492
        k(   40) = (   0.2000000   0.7171664   0.9349334), wk =   0.0063492
        k(   41) = (   0.4000000   0.0000000   0.0000000), wk =   0.0063492
        k(   42) = (   0.4000000   0.0000000   0.2337334), wk =   0.0063492
        k(   43) = (   0.4000000   0.0000000   0.4674667), wk =   0.0063492
        k(   44) = (   0.4000000   0.0000000   0.7012001), wk =   0.0063492
        k(   45) = (   0.4000000   0.0000000   0.9349334), wk =   0.0063492
        k(   46) = (   0.4000000   0.2390555   0.0000000), wk =   0.0063492
        k(   47) = (   0.4000000   0.2390555   0.2337334), wk =   0.0063492
        k(   48) = (   0.4000000   0.2390555   0.4674667), wk =   0.0063492
        k(   49) = (   0.4000000   0.2390555   0.7012001), wk =   0.0063492
        k(   50) = (   0.4000000   0.2390555   0.9349334), wk =   0.0063492
        k(   51) = (   0.4000000   0.4781110   0.0000000), wk =   0.0063492
        k(   52) = (   0.4000000   0.4781110   0.2337334), wk =   0.0063492
        k(   53) = (   0.4000000   0.4781110   0.4674667), wk =   0.0063492
        k(   54) = (   0.4000000   0.4781110   0.7012001), wk =   0.0063492
        k(   55) = (   0.4000000   0.4781110   0.9349334), wk =   0.0063492
        k(   56) = (   0.4000000   0.7171664   0.0000000), wk =   0.0063492
        k(   57) = (   0.4000000   0.7171664   0.2337334), wk =   0.0063492
        k(   58) = (   0.4000000   0.7171664   0.4674667), wk =   0.0063492
        k(   59) = (   0.4000000   0.7171664   0.7012001), wk =   0.0063492
        k(   60) = (   0.4000000   0.7171664   0.9349334), wk =   0.0063492
        k(   61) = (   0.0000000   0.2390555  -0.2337334), wk =   0.0063492
        k(   62) = (   0.0000000   0.2390555  -0.4674667), wk =   0.0063492
        k(   63) = (   0.0000000   0.2390555  -0.7012001), wk =   0.0063492
        k(   64) = (   0.0000000   0.2390555  -0.9349334), wk =   0.0063492
        k(   65) = (   0.0000000   0.4781110  -0.2337334), wk =   0.0063492
        k(   66) = (   0.0000000   0.4781110  -0.4674667), wk =   0.0063492
        k(   67) = (   0.0000000   0.4781110  -0.7012001), wk =   0.0063492
        k(   68) = (   0.0000000   0.4781110  -0.9349334), wk =   0.0063492
        k(   69) = (   0.0000000   0.7171664  -0.2337334), wk =   0.0063492
        k(   70) = (   0.0000000   0.7171664  -0.4674667), wk =   0.0063492
        k(   71) = (   0.0000000   0.7171664  -0.7012001), wk =   0.0063492
        k(   72) = (   0.0000000   0.7171664  -0.9349334), wk =   0.0063492
        k(   73) = (   0.2000000   0.0000000  -0.2337334), wk =   0.0063492
        k(   74) = (   0.2000000   0.0000000  -0.4674667), wk =   0.0063492
        k(   75) = (   0.2000000   0.0000000  -0.7012001), wk =   0.0063492
        k(   76) = (   0.2000000   0.0000000  -0.9349334), wk =   0.0063492
        k(   77) = (  -0.2000000   0.2390555   0.0000000), wk =   0.0063492
        k(   78) = (  -0.2000000   0.2390555  -0.2337334), wk =   0.0063492
        k(   79) = (   0.2000000  -0.2390555  -0.2337334), wk =   0.0063492
        k(   80) = (  -0.2000000  -0.2390555   0.2337334), wk =   0.0063492
        k(   81) = (  -0.2000000   0.2390555  -0.4674667), wk =   0.0063492
        k(   82) = (   0.2000000  -0.2390555  -0.4674667), wk =   0.0063492
        k(   83) = (  -0.2000000  -0.2390555   0.4674667), wk =   0.0063492
        k(   84) = (  -0.2000000   0.2390555  -0.7012001), wk =   0.0063492
        k(   85) = (   0.2000000  -0.2390555  -0.7012001), wk =   0.0063492
        k(   86) = (  -0.2000000  -0.2390555   0.7012001), wk =   0.0063492
        k(   87) = (  -0.2000000   0.2390555  -0.9349334), wk =   0.0063492
        k(   88) = (   0.2000000  -0.2390555  -0.9349334), wk =   0.0063492
        k(   89) = (  -0.2000000  -0.2390555   0.9349334), wk =   0.0063492
        k(   90) = (  -0.2000000   0.4781110   0.0000000), wk =   0.0063492
        k(   91) = (  -0.2000000   0.4781110  -0.2337334), wk =   0.0063492
        k(   92) = (   0.2000000  -0.4781110  -0.2337334), wk =   0.0063492
        k(   93) = (  -0.2000000  -0.4781110   0.2337334), wk =   0.0063492
        k(   94) = (  -0.2000000   0.4781110  -0.4674667), wk =   0.0063492
        k(   95) = (   0.2000000  -0.4781110  -0.4674667), wk =   0.0063492
        k(   96) = (  -0.2000000  -0.4781110   0.4674667), wk =   0.0063492
        k(   97) = (  -0.2000000   0.4781110  -0.7012001), wk =   0.0063492
        k(   98) = (   0.2000000  -0.4781110  -0.7012001), wk =   0.0063492
        k(   99) = (  -0.2000000  -0.4781110   0.7012001), wk =   0.0063492
        k(  100) = (  -0.2000000   0.4781110  -0.9349334), wk =   0.0063492
        k(  101) = (   0.2000000  -0.4781110  -0.9349334), wk =   0.0063492
        k(  102) = (  -0.2000000  -0.4781110   0.9349334), wk =   0.0063492
        k(  103) = (  -0.2000000   0.7171664   0.0000000), wk =   0.0063492
        k(  104) = (  -0.2000000   0.7171664  -0.2337334), wk =   0.0063492
        k(  105) = (   0.2000000  -0.7171664  -0.2337334), wk =   0.0063492
        k(  106) = (  -0.2000000  -0.7171664   0.2337334), wk =   0.0063492
        k(  107) = (  -0.2000000   0.7171664  -0.4674667), wk =   0.0063492
        k(  108) = (   0.2000000  -0.7171664  -0.4674667), wk =   0.0063492
        k(  109) = (  -0.2000000  -0.7171664   0.4674667), wk =   0.0063492
        k(  110) = (  -0.2000000   0.7171664  -0.7012001), wk =   0.0063492
        k(  111) = (   0.2000000  -0.7171664  -0.7012001), wk =   0.0063492
        k(  112) = (  -0.2000000  -0.7171664   0.7012001), wk =   0.0063492
        k(  113) = (  -0.2000000   0.7171664  -0.9349334), wk =   0.0063492
        k(  114) = (   0.2000000  -0.7171664  -0.9349334), wk =   0.0063492
        k(  115) = (  -0.2000000  -0.7171664   0.9349334), wk =   0.0063492
        k(  116) = (   0.4000000   0.0000000  -0.2337334), wk =   0.0063492
        k(  117) = (   0.4000000   0.0000000  -0.4674667), wk =   0.0063492
        k(  118) = (   0.4000000   0.0000000  -0.7012001), wk =   0.0063492
        k(  119) = (   0.4000000   0.0000000  -0.9349334), wk =   0.0063492
        k(  120) = (  -0.4000000   0.2390555   0.0000000), wk =   0.0063492
        k(  121) = (  -0.4000000   0.2390555  -0.2337334), wk =   0.0063492
        k(  122) = (   0.4000000  -0.2390555  -0.2337334), wk =   0.0063492
        k(  123) = (  -0.4000000  -0.2390555   0.2337334), wk =   0.0063492
        k(  124) = (  -0.4000000   0.2390555  -0.4674667), wk =   0.0063492
        k(  125) = (   0.4000000  -0.2390555  -0.4674667), wk =   0.0063492
        k(  126) = (  -0.4000000  -0.2390555   0.4674667), wk =   0.0063492
        k(  127) = (  -0.4000000   0.2390555  -0.7012001), wk =   0.0063492
        k(  128) = (   0.4000000  -0.2390555  -0.7012001), wk =   0.0063492
        k(  129) = (  -0.4000000  -0.2390555   0.7012001), wk =   0.0063492
        k(  130) = (  -0.4000000   0.2390555  -0.9349334), wk =   0.0063492
        k(  131) = (   0.4000000  -0.2390555  -0.9349334), wk =   0.0063492
        k(  132) = (  -0.4000000  -0.2390555   0.9349334), wk =   0.0063492
        k(  133) = (  -0.4000000   0.4781110   0.0000000), wk =   0.0063492
        k(  134) = (  -0.4000000   0.4781110  -0.2337334), wk =   0.0063492
        k(  135) = (   0.4000000  -0.4781110  -0.2337334), wk =   0.0063492
        k(  136) = (  -0.4000000  -0.4781110   0.2337334), wk =   0.0063492
        k(  137) = (  -0.4000000   0.4781110  -0.4674667), wk =   0.0063492
        k(  138) = (   0.4000000  -0.4781110  -0.4674667), wk =   0.0063492
        k(  139) = (  -0.4000000  -0.4781110   0.4674667), wk =   0.0063492
        k(  140) = (  -0.4000000   0.4781110  -0.7012001), wk =   0.0063492
        k(  141) = (   0.4000000  -0.4781110  -0.7012001), wk =   0.0063492
        k(  142) = (  -0.4000000  -0.4781110   0.7012001), wk =   0.0063492
        k(  143) = (  -0.4000000   0.4781110  -0.9349334), wk =   0.0063492
        k(  144) = (   0.4000000  -0.4781110  -0.9349334), wk =   0.0063492
        k(  145) = (  -0.4000000  -0.4781110   0.9349334), wk =   0.0063492
        k(  146) = (  -0.4000000   0.7171664   0.0000000), wk =   0.0063492
        k(  147) = (  -0.4000000   0.7171664  -0.2337334), wk =   0.0063492
        k(  148) = (   0.4000000  -0.7171664  -0.2337334), wk =   0.0063492
        k(  149) = (  -0.4000000  -0.7171664   0.2337334), wk =   0.0063492
        k(  150) = (  -0.4000000   0.7171664  -0.4674667), wk =   0.0063492
        k(  151) = (   0.4000000  -0.7171664  -0.4674667), wk =   0.0063492
        k(  152) = (  -0.4000000  -0.7171664   0.4674667), wk =   0.0063492
        k(  153) = (  -0.4000000   0.7171664  -0.7012001), wk =   0.0063492
        k(  154) = (   0.4000000  -0.7171664  -0.7012001), wk =   0.0063492
        k(  155) = (  -0.4000000  -0.7171664   0.7012001), wk =   0.0063492
        k(  156) = (  -0.4000000   0.7171664  -0.9349334), wk =   0.0063492
        k(  157) = (   0.4000000  -0.7171664  -0.9349334), wk =   0.0063492
        k(  158) = (  -0.4000000  -0.7171664   0.9349334), wk =   0.0063492

                       cryst. coord.
        k(    1) = (   0.0000000   0.0000000   0.0000000), wk =   0.0031746
        k(    2) = (   0.0000000   0.0000000   0.1111111), wk =   0.0063492
        k(    3) = (   0.0000000   0.0000000   0.2222222), wk =   0.0063492
        k(    4) = (   0.0000000   0.0000000   0.3333333), wk =   0.0063492
        k(    5) = (   0.0000000   0.0000000   0.4444444), wk =   0.0063492
        k(    6) = (   0.0000000   0.1428571   0.0000000), wk =   0.0063492
        k(    7) = (   0.0000000   0.1428571   0.1111111), wk =   0.0063492
        k(    8) = (   0.0000000   0.1428571   0.2222222), wk =   0.0063492
        k(    9) = (   0.0000000   0.1428571   0.3333333), wk =   0.0063492
        k(   10) = (   0.0000000   0.1428571   0.4444444), wk =   0.0063492
        k(   11) = (   0.0000000   0.2857143   0.0000000), wk =   0.0063492
        k(   12) = (   0.0000000   0.2857143   0.1111111), wk =   0.0063492
        k(   13) = (   0.0000000   0.2857143   0.2222222), wk =   0.0063492
        k(   14) = (   0.0000000   0.2857143   0.3333333), wk =   0.0063492
        k(   15) = (   0.0000000   0.2857143   0.4444444), wk =   0.0063492
        k(   16) = (   0.0000000   0.4285714   0.0000000), wk =   0.0063492
        k(   17) = (   0.0000000   0.4285714   0.1111111), wk =   0.0063492
        k(   18) = (   0.0000000   0.4285714   0.2222222), wk =   0.0063492
        k(   19) = (   0.0000000   0.4285714   0.3333333), wk =   0.0063492
        k(   20) = (   0.0000000   0.4285714   0.4444444), wk =   0.0063492
        k(   21) = (   0.2000000   0.0000000   0.0000000), wk =   0.0063492
        k(   22) = (   0.2000000   0.0000000   0.1111111), wk =   0.0063492
        k(   23) = (   0.2000000   0.0000000   0.2222222), wk =   0.0063492
        k(   24) = (   0.2000000   0.0000000   0.3333333), wk =   0.0063492
        k(   25) = (   0.2000000   0.0000000   0.4444444), wk =   0.0063492
        k(   26) = (   0.2000000   0.1428571   0.0000000), wk =   0.0063492
        k(   27) = (   0.2000000   0.1428571   0.1111111), wk =   0.0063492
        k(   28) = (   0.2000000   0.1428571   0.2222222), wk =   0.0063492
        k(   29) = (   0.2000000   0.1428571   0.3333333), wk =   0.0063492
        k(   30) = (   0.2000000   0.1428571   0.4444444), wk =   0.0063492
        k(   31) = (   0.2000000   0.2857143   0.0000000), wk =   0.0063492
        k(   32) = (   0.2000000   0.2857143   0.1111111), wk =   0.0063492
        k(   33) = (   0.2000000   0.2857143   0.2222222), wk =   0.0063492
        k(   34) = (   0.2000000   0.2857143   0.3333333), wk =   0.0063492
        k(   35) = (   0.2000000   0.2857143   0.4444444), wk =   0.0063492
        k(   36) = (   0.2000000   0.4285714   0.0000000), wk =   0.0063492
        k(   37) = (   0.2000000   0.4285714   0.1111111), wk =   0.0063492
        k(   38) = (   0.2000000   0.4285714   0.2222222), wk =   0.0063492
        k(   39) = (   0.2000000   0.4285714   0.3333333), wk =   0.0063492
        k(   40) = (   0.2000000   0.4285714   0.4444444), wk =   0.0063492
        k(   41) = (   0.4000000   0.0000000   0.0000000), wk =   0.0063492
        k(   42) = (   0.4000000   0.0000000   0.1111111), wk =   0.0063492
        k(   43) = (   0.4000000   0.0000000   0.2222222), wk =   0.0063492
        k(   44) = (   0.4000000   0.0000000   0.3333333), wk =   0.0063492
        k(   45) = (   0.4000000   0.0000000   0.4444444), wk =   0.0063492
        k(   46) = (   0.4000000   0.1428571   0.0000000), wk =   0.0063492
        k(   47) = (   0.4000000   0.1428571   0.1111111), wk =   0.0063492
        k(   48) = (   0.4000000   0.1428571   0.2222222), wk =   0.0063492
        k(   49) = (   0.4000000   0.1428571   0.3333333), wk =   0.0063492
        k(   50) = (   0.4000000   0.1428571   0.4444444), wk =   0.0063492
        k(   51) = (   0.4000000   0.2857143   0.0000000), wk =   0.0063492
        k(   52) = (   0.4000000   0.2857143   0.1111111), wk =   0.0063492
        k(   53) = (   0.4000000   0.2857143   0.2222222), wk =   0.0063492
        k(   54) = (   0.4000000   0.2857143   0.3333333), wk =   0.0063492
        k(   55) = (   0.4000000   0.2857143   0.4444444), wk =   0.0063492
        k(   56) = (   0.4000000   0.4285714   0.0000000), wk =   0.0063492
        k(   57) = (   0.4000000   0.4285714   0.1111111), wk =   0.0063492
        k(   58) = (   0.4000000   0.4285714   0.2222222), wk =   0.0063492
        k(   59) = (   0.4000000   0.4285714   0.3333333), wk =   0.0063492
        k(   60) = (   0.4000000   0.4285714   0.4444444), wk =   0.0063492
        k(   61) = (   0.0000000   0.1428571  -0.1111111), wk =   0.0063492
        k(   62) = (   0.0000000   0.1428571  -0.2222222), wk =   0.0063492
        k(   63) = (   0.0000000   0.1428571  -0.3333333), wk =   0.0063492
        k(   64) = (   0.0000000   0.1428571  -0.4444444), wk =   0.0063492
        k(   65) = (   0.0000000   0.2857143  -0.1111111), wk =   0.0063492
        k(   66) = (   0.0000000   0.2857143  -0.2222222), wk =   0.0063492
        k(   67) = (   0.0000000   0.2857143  -0.3333333), wk =   0.0063492
        k(   68) = (   0.0000000   0.2857143  -0.4444444), wk =   0.0063492
        k(   69) = (   0.0000000   0.4285714  -0.1111111), wk =   0.0063492
        k(   70) = (   0.0000000   0.4285714  -0.2222222), wk =   0.0063492
        k(   71) = (   0.0000000   0.4285714  -0.3333333), wk =   0.0063492
        k(   72) = (   0.0000000   0.4285714  -0.4444444), wk =   0.0063492
        k(   73) = (   0.2000000   0.0000000  -0.1111111), wk =   0.0063492
        k(   74) = (   0.2000000   0.0000000  -0.2222222), wk =   0.0063492
        k(   75) = (   0.2000000   0.0000000  -0.3333333), wk =   0.0063492
        k(   76) = (   0.2000000   0.0000000  -0.4444444), wk =   0.0063492
        k(   77) = (  -0.2000000   0.1428571   0.0000000), wk =   0.0063492
        k(   78) = (  -0.2000000   0.1428571  -0.1111111), wk =   0.0063492
        k(   79) = (   0.2000000  -0.1428571  -0.1111111), wk =   0.0063492
        k(   80) = (  -0.2000000  -0.1428571   0.1111111), wk =   0.0063492
        k(   81) = (  -0.2000000   0.1428571  -0.2222222), wk =   0.0063492
        k(   82) = (   0.2000000  -0.1428571  -0.2222222), wk =   0.0063492
        k(   83) = (  -0.2000000  -0.1428571   0.2222222), wk =   0.0063492
        k(   84) = (  -0.2000000   0.1428571  -0.3333333), wk =   0.0063492
        k(   85) = (   0.2000000  -0.1428571  -0.3333333), wk =   0.0063492
        k(   86) = (  -0.2000000  -0.1428571   0.3333333), wk =   0.0063492
        k(   87) = (  -0.2000000   0.1428571  -0.4444444), wk =   0.0063492
        k(   88) = (   0.2000000  -0.1428571  -0.4444444), wk =   0.0063492
        k(   89) = (  -0.2000000  -0.1428571   0.4444444), wk =   0.0063492
        k(   90) = (  -0.2000000   0.2857143   0.0000000), wk =   0.0063492
        k(   91) = (  -0.2000000   0.2857143  -0.1111111), wk =   0.0063492
        k(   92) = (   0.2000000  -0.2857143  -0.1111111), wk =   0.0063492
        k(   93) = (  -0.2000000  -0.2857143   0.1111111), wk =   0.0063492
        k(   94) = (  -0.2000000   0.2857143  -0.2222222), wk =   0.0063492
        k(   95) = (   0.2000000  -0.2857143  -0.2222222), wk =   0.0063492
        k(   96) = (  -0.2000000  -0.2857143   0.2222222), wk =   0.0063492
        k(   97) = (  -0.2000000   0.2857143  -0.3333333), wk =   0.0063492
        k(   98) = (   0.2000000  -0.2857143  -0.3333333), wk =   0.0063492
        k(   99) = (  -0.2000000  -0.2857143   0.3333333), wk =   0.0063492
        k(  100) = (  -0.2000000   0.2857143  -0.4444444), wk =   0.0063492
        k(  101) = (   0.2000000  -0.2857143  -0.4444444), wk =   0.0063492
        k(  102) = (  -0.2000000  -0.2857143   0.4444444), wk =   0.0063492
        k(  103) = (  -0.2000000   0.4285714   0.0000000), wk =   0.0063492
        k(  104) = (  -0.2000000   0.4285714  -0.1111111), wk =   0.0063492
        k(  105) = (   0.2000000  -0.4285714  -0.1111111), wk =   0.0063492
        k(  106) = (  -0.2000000  -0.4285714   0.1111111), wk =   0.0063492
        k(  107) = (  -0.2000000   0.4285714  -0.2222222), wk =   0.0063492
        k(  108) = (   0.2000000  -0.4285714  -0.2222222), wk =   0.0063492
        k(  109) = (  -0.2000000  -0.4285714   0.2222222), wk =   0.0063492
        k(  110) = (  -0.2000000   0.4285714  -0.3333333), wk =   0.0063492
        k(  111) = (   0.2000000  -0.4285714  -0.3333333), wk =   0.0063492
        k(  112) = (  -0.2000000  -0.4285714   0.3333333), wk =   0.0063492
        k(  113) = (  -0.2000000   0.4285714  -0.4444444), wk =   0.0063492
        k(  114) = (   0.2000000  -0.4285714  -0.4444444), wk =   0.0063492
        k(  115) = (  -0.2000000  -0.4285714   0.4444444), wk =   0.0063492
        k(  116) = (   0.4000000   0.0000000  -0.1111111), wk =   0.0063492
        k(  117) = (   0.4000000   0.0000000  -0.2222222), wk =   0.0063492
        k(  118) = (   0.4000000   0.0000000  -0.3333333), wk =   0.0063492
        k(  119) = (   0.4000000   0.0000000  -0.4444444), wk =   0.0063492
        k(  120) = (  -0.4000000   0.1428571   0.0000000), wk =   0.0063492
        k(  121) = (  -0.4000000   0.1428571  -0.1111111), wk =   0.0063492
        k(  122) = (   0.4000000  -0.1428571  -0.1111111), wk =   0.0063492
        k(  123) = (  -0.4000000  -0.1428571   0.1111111), wk =   0.0063492
        k(  124) = (  -0.4000000   0.1428571  -0.2222222), wk =   0.0063492
        k(  125) = (   0.4000000  -0.1428571  -0.2222222), wk =   0.0063492
        k(  126) = (  -0.4000000  -0.1428571   0.2222222), wk =   0.0063492
        k(  127) = (  -0.4000000   0.1428571  -0.3333333), wk =   0.0063492
        k(  128) = (   0.4000000  -0.1428571  -0.3333333), wk =   0.0063492
        k(  129) = (  -0.4000000  -0.1428571   0.3333333), wk =   0.0063492
        k(  130) = (  -0.4000000   0.1428571  -0.4444444), wk =   0.0063492
        k(  131) = (   0.4000000  -0.1428571  -0.4444444), wk =   0.0063492
        k(  132) = (  -0.4000000  -0.1428571   0.4444444), wk =   0.0063492
        k(  133) = (  -0.4000000   0.2857143   0.0000000), wk =   0.0063492
        k(  134) = (  -0.4000000   0.2857143  -0.1111111), wk =   0.0063492
        k(  135) = (   0.4000000  -0.2857143  -0.1111111), wk =   0.0063492
        k(  136) = (  -0.4000000  -0.2857143   0.1111111), wk =   0.0063492
        k(  137) = (  -0.4000000   0.2857143  -0.2222222), wk =   0.0063492
        k(  138) = (   0.4000000  -0.2857143  -0.2222222), wk =   0.0063492
        k(  139) = (  -0.4000000  -0.2857143   0.2222222), wk =   0.0063492
        k(  140) = (  -0.4000000   0.2857143  -0.3333333), wk =   0.0063492
        k(  141) = (   0.4000000  -0.2857143  -0.3333333), wk =   0.0063492
        k(  142) = (  -0.4000000  -0.2857143   0.3333333), wk =   0.0063492
        k(  143) = (  -0.4000000   0.2857143  -0.4444444), wk =   0.0063492
        k(  144) = (   0.4000000  -0.2857143  -0.4444444), wk =   0.0063492
        k(  145) = (  -0.4000000  -0.2857143   0.4444444), wk =   0.0063492
        k(  146) = (  -0.4000000   0.4285714   0.0000000), wk =   0.0063492
        k(  147) = (  -0.4000000   0.4285714  -0.1111111), wk =   0.0063492
        k(  148) = (   0.4000000  -0.4285714  -0.1111111), wk =   0.0063492
        k(  149) = (  -0.4000000  -0.4285714   0.1111111), wk =   0.0063492
        k(  150) = (  -0.4000000   0.4285714  -0.2222222), wk =   0.0063492
        k(  151) = (   0.4000000  -0.4285714  -0.2222222), wk =   0.0063492
        k(  152) = (  -0.4000000  -0.4285714   0.2222222), wk =   0.0063492
        k(  153) = (  -0.4000000   0.4285714  -0.3333333), wk =   0.0063492
        k(  154) = (   0.4000000  -0.4285714  -0.3333333), wk =   0.0063492
        k(  155) = (  -0.4000000  -0.4285714   0.3333333), wk =   0.0063492
        k(  156) = (  -0.4000000   0.4285714  -0.4444444), wk =   0.0063492
        k(  157) = (   0.4000000  -0.4285714  -0.4444444), wk =   0.0063492
        k(  158) = (  -0.4000000  -0.4285714   0.4444444), wk =   0.0063492

     Dense  grid:  1169635 G-vectors     FFT dimensions: ( 200, 120,  96)

     Smooth grid:   263601 G-vectors     FFT dimensions: ( 125,  75,  60)

     Dynamical RAM for                 wfc:       4.78 MB

     Dynamical RAM for     wfc (w. buffer):    1514.21 MB

     Dynamical RAM for           str. fact:       5.95 MB

     Dynamical RAM for           local pot:       0.00 MB

     Dynamical RAM for          nlocal pot:      11.73 MB

     Dynamical RAM for                qrad:      10.54 MB

     Dynamical RAM for          rho,v,vnew:      17.71 MB

     Dynamical RAM for               rhoin:       5.90 MB

     Dynamical RAM for            rho*nmix:      47.59 MB

     Dynamical RAM for           G-vectors:       5.74 MB

     Dynamical RAM for          h,s,v(r/c):       2.38 MB

     Dynamical RAM for          <psi|beta>:       0.49 MB

     Dynamical RAM for                 psi:       9.55 MB

     Dynamical RAM for                hpsi:       9.55 MB

     Dynamical RAM for                spsi:       9.55 MB

     Dynamical RAM for      wfcinit/wfcrot:      11.91 MB

     Dynamical RAM for           addusdens:     301.92 MB

     Dynamical RAM for          addusforce:     346.66 MB

     Dynamical RAM for         addusstress:     301.17 MB

     Estimated static dynamical RAM per process >       1.60 GB

     Estimated max dynamical RAM per process >       1.94 GB

     Estimated total dynamical RAM >      23.23 GB

     Check: negative core charge=   -0.000003
     Generating pointlists ...
     new r_m :   0.0764 (alat units)  1.4525 (a.u.) for type    1
     new r_m :   0.0940 (alat units)  1.7860 (a.u.) for type    2
     new r_m :   0.0611 (alat units)  1.1607 (a.u.) for type    3
     new r_m :   0.0611 (alat units)  1.1607 (a.u.) for type    4

     Initial potential from superposition of free atoms

     starting charge  188.99132, renormalised to  189.00000
     Starting wfcs are  137 randomized atomic wfcs
     Checking if some PAW data can be deallocated... 
       PAW data deallocated on   10 nodes for type:  1
       PAW data deallocated on    4 nodes for type:  3

     total cpu time spent up to now is      288.8 secs

     Self-consistent Calculation

     iteration #  1     ecut=   100.00 Ry     beta= 0.40
     Davidson diagonalization with overlap
     ethr =  1.00E-02,  avg # of iterations =  3.6

     negative rho (up, down):  0.000E+00 2.130E-05

     total cpu time spent up to now is     1224.0 secs

     total energy              =   -2124.11816205 Ry
     estimated scf accuracy    <       6.55028025 Ry

     total magnetization       =    19.00 Bohr mag/cell
     absolute magnetization    =    19.00 Bohr mag/cell

     iteration #  2     ecut=   100.00 Ry     beta= 0.40
     Davidson diagonalization with overlap
     ethr =  3.47E-03,  avg # of iterations =  2.0

     negative rho (up, down):  0.000E+00 1.660E-08

     total cpu time spent up to now is     2043.2 secs

     total energy              =   -2124.33619981 Ry
     estimated scf accuracy    <       6.69874673 Ry

     total magnetization       =    14.81 Bohr mag/cell
     absolute magnetization    =    14.83 Bohr mag/cell

     iteration #  3     ecut=   100.00 Ry     beta= 0.40
     Davidson diagonalization with overlap
     ethr =  3.47E-03,  avg # of iterations =  2.0

     negative rho (up, down):  0.000E+00 4.602E-05

     total cpu time spent up to now is     2725.5 secs

     total energy              =   -2125.61926198 Ry
     estimated scf accuracy    <       3.61470257 Ry

     total magnetization       =    16.48 Bohr mag/cell
     absolute magnetization    =    16.52 Bohr mag/cell

     iteration #  4     ecut=   100.00 Ry     beta= 0.40
     Davidson diagonalization with overlap
     ethr =  1.91E-03,  avg # of iterations =  1.7

     negative rho (up, down):  0.000E+00 9.333E-05

     total cpu time spent up to now is     3379.7 secs

     total energy              =   -2125.72050819 Ry
     estimated scf accuracy    <       5.01175852 Ry

     total magnetization       =    15.14 Bohr mag/cell
     absolute magnetization    =    15.25 Bohr mag/cell

     iteration #  5     ecut=   100.00 Ry     beta= 0.40
     Davidson diagonalization with overlap
     ethr =  1.91E-03,  avg # of iterations =  1.4

     negative rho (up, down):  0.000E+00 3.556E-04

     total cpu time spent up to now is     3997.1 secs

     total energy              =   -2126.02797180 Ry
     estimated scf accuracy    <       0.36934827 Ry

     total magnetization       =    19.00 Bohr mag/cell
     absolute magnetization    =    19.00 Bohr mag/cell

     iteration #  6     ecut=   100.00 Ry     beta= 0.40
     Davidson diagonalization with overlap
     c_bands:  1 eigenvalues not converged
     c_bands:  2 eigenvalues not converged
     ethr =  1.95E-04,  avg # of iterations =  9.5

     negative rho (up, down):  0.000E+00 8.728E-04

     total cpu time spent up to now is     4874.6 secs

     total energy              =   -2126.04827123 Ry
     estimated scf accuracy    <       0.05631651 Ry

     total magnetization       =    19.00 Bohr mag/cell
     absolute magnetization    =    19.01 Bohr mag/cell

     iteration #  7     ecut=   100.00 Ry     beta= 0.40
     Davidson diagonalization with overlap
     c_bands:  1 eigenvalues not converged
     c_bands:  1 eigenvalues not converged
     c_bands:  1 eigenvalues not converged
     c_bands:  1 eigenvalues not converged
     c_bands:  1 eigenvalues not converged
     c_bands:  1 eigenvalues not converged
     c_bands:  1 eigenvalues not converged
     c_bands:  2 eigenvalues not converged
     c_bands:  1 eigenvalues not converged
     c_bands:  1 eigenvalues not converged
     c_bands:  1 eigenvalues not converged
     c_bands:  1 eigenvalues not converged
     c_bands:  1 eigenvalues not converged
     c_bands:  1 eigenvalues not converged
     c_bands:  2 eigenvalues not converged
     c_bands:  1 eigenvalues not converged
     c_bands:  1 eigenvalues not converged
     c_bands:  1 eigenvalues not converged
     c_bands:  1 eigenvalues not converged
     c_bands:  1 eigenvalues not converged
     c_bands:  1 eigenvalues not converged
     c_bands:  1 eigenvalues not converged
     c_bands:  1 eigenvalues not converged
     c_bands:  1 eigenvalues not converged
     c_bands:  1 eigenvalues not converged
     ethr =  2.98E-05,  avg # of iterations = 12.3

     negative rho (up, down):  0.000E+00 9.794E-04

     total cpu time spent up to now is     6140.2 secs

     total energy              =   -2126.06731390 Ry
     estimated scf accuracy    <       0.01700170 Ry

     total magnetization       =    19.00 Bohr mag/cell
     absolute magnetization    =    19.02 Bohr mag/cell

     iteration #  8     ecut=   100.00 Ry     beta= 0.40
     Davidson diagonalization with overlap
     c_bands:  1 eigenvalues not converged
     c_bands:  1 eigenvalues not converged
     c_bands:  2 eigenvalues not converged
     c_bands:  1 eigenvalues not converged
     c_bands:  2 eigenvalues not converged
     c_bands:  1 eigenvalues not converged
     c_bands:  1 eigenvalues not converged
     c_bands:  1 eigenvalues not converged
     c_bands:  1 eigenvalues not converged
     c_bands:  1 eigenvalues not converged
     c_bands:  1 eigenvalues not converged
     c_bands:  1 eigenvalues not converged
     c_bands:  1 eigenvalues not converged
     c_bands:  1 eigenvalues not converged
     c_bands:  1 eigenvalues not converged
     ethr =  9.00E-06,  avg # of iterations =  8.0

     negative rho (up, down):  0.000E+00 1.049E-03

     total cpu time spent up to now is     6953.1 secs

     total energy              =   -2126.06897180 Ry
     estimated scf accuracy    <       0.00248340 Ry

     total magnetization       =    19.00 Bohr mag/cell
     absolute magnetization    =    19.03 Bohr mag/cell

     iteration #  9     ecut=   100.00 Ry     beta= 0.40
     Davidson diagonalization with overlap
     c_bands:  1 eigenvalues not converged
     c_bands:  1 eigenvalues not converged
     c_bands:  1 eigenvalues not converged
     c_bands:  1 eigenvalues not converged
     c_bands:  1 eigenvalues not converged
     c_bands:  1 eigenvalues not converged
     c_bands:  1 eigenvalues not converged
     c_bands:  1 eigenvalues not converged
     c_bands:  1 eigenvalues not converged
     c_bands:  1 eigenvalues not converged
     c_bands:  1 eigenvalues not converged
     c_bands:  1 eigenvalues not converged
     c_bands:  1 eigenvalues not converged
     c_bands:  1 eigenvalues not converged
     c_bands:  1 eigenvalues not converged
     c_bands:  1 eigenvalues not converged
     c_bands:  1 eigenvalues not converged
     c_bands:  1 eigenvalues not converged
     c_bands:  1 eigenvalues not converged
     c_bands:  1 eigenvalues not converged
     ethr =  1.31E-06,  avg # of iterations = 11.0

     negative rho (up, down):  0.000E+00 1.049E-03

     total cpu time spent up to now is     8074.4 secs

     total energy              =   -2126.06985721 Ry
     estimated scf accuracy    <       0.00042336 Ry

     total magnetization       =    19.00 Bohr mag/cell
     absolute magnetization    =    19.03 Bohr mag/cell

     iteration # 10     ecut=   100.00 Ry     beta= 0.40
     Davidson diagonalization with overlap
     c_bands:  1 eigenvalues not converged
     c_bands:  1 eigenvalues not converged
     c_bands:  1 eigenvalues not converged
     c_bands:  1 eigenvalues not converged
     ethr =  2.24E-07,  avg # of iterations =  3.2

     negative rho (up, down):  0.000E+00 1.052E-03

     total cpu time spent up to now is     8812.1 secs

     total energy              =   -2126.06995811 Ry
     estimated scf accuracy    <       0.00025169 Ry

     total magnetization       =    19.00 Bohr mag/cell
     absolute magnetization    =    19.04 Bohr mag/cell

     iteration # 11     ecut=   100.00 Ry     beta= 0.40
     Davidson diagonalization with overlap
     c_bands:  1 eigenvalues not converged
     ethr =  1.33E-07,  avg # of iterations =  1.5

     negative rho (up, down):  0.000E+00 1.054E-03

     total cpu time spent up to now is     9431.2 secs

     total energy              =   -2126.06997532 Ry
     estimated scf accuracy    <       0.00008954 Ry

     total magnetization       =    19.00 Bohr mag/cell
     absolute magnetization    =    19.04 Bohr mag/cell

     iteration # 12     ecut=   100.00 Ry     beta= 0.40
     Davidson diagonalization with overlap
     ethr =  4.74E-08,  avg # of iterations =  2.7

     negative rho (up, down):  0.000E+00 1.053E-03

     total cpu time spent up to now is    10235.2 secs

     total energy              =   -2126.07000738 Ry
     estimated scf accuracy    <       0.00001929 Ry

     total magnetization       =    19.00 Bohr mag/cell
     absolute magnetization    =    19.04 Bohr mag/cell

     iteration # 13     ecut=   100.00 Ry     beta= 0.40
     Davidson diagonalization with overlap
     ethr =  1.02E-08,  avg # of iterations =  3.9

     negative rho (up, down):  0.000E+00 1.053E-03

     total cpu time spent up to now is    11039.9 secs

     total energy              =   -2126.07001380 Ry
     estimated scf accuracy    <       0.00000369 Ry

     total magnetization       =    19.00 Bohr mag/cell
     absolute magnetization    =    19.04 Bohr mag/cell

     iteration # 14     ecut=   100.00 Ry     beta= 0.40
     Davidson diagonalization with overlap
     ethr =  1.95E-09,  avg # of iterations =  3.5

     negative rho (up, down):  0.000E+00 1.053E-03

     total cpu time spent up to now is    11923.8 secs

     total energy              =   -2126.07001632 Ry
     estimated scf accuracy    <       0.00000495 Ry

     total magnetization       =    19.00 Bohr mag/cell
     absolute magnetization    =    19.04 Bohr mag/cell

     iteration # 15     ecut=   100.00 Ry     beta= 0.40
     Davidson diagonalization with overlap
     ethr =  1.95E-09,  avg # of iterations =  1.5

     negative rho (up, down):  0.000E+00 1.052E-03

     total cpu time spent up to now is    12548.0 secs

     total energy              =   -2126.07001700 Ry
     estimated scf accuracy    <       0.00000036 Ry

     total magnetization       =    19.00 Bohr mag/cell
     absolute magnetization    =    19.04 Bohr mag/cell

     iteration # 16     ecut=   100.00 Ry     beta= 0.40
     Davidson diagonalization with overlap
     ethr =  1.93E-10,  avg # of iterations =  3.3

     negative rho (up, down):  0.000E+00 1.052E-03

     total cpu time spent up to now is    13391.3 secs

     total energy              =   -2126.07001723 Ry
     estimated scf accuracy    <       0.00000008 Ry

     total magnetization       =    19.00 Bohr mag/cell
     absolute magnetization    =    19.04 Bohr mag/cell

     iteration # 17     ecut=   100.00 Ry     beta= 0.40
     Davidson diagonalization with overlap
     ethr =  4.15E-11,  avg # of iterations =  3.1

     negative rho (up, down):  0.000E+00 1.052E-03

     total cpu time spent up to now is    14179.4 secs

     total energy              =   -2126.07001730 Ry
     estimated scf accuracy    <       0.00000003 Ry

     total magnetization       =    19.00 Bohr mag/cell
     absolute magnetization    =    19.04 Bohr mag/cell

     iteration # 18     ecut=   100.00 Ry     beta= 0.40
     Davidson diagonalization with overlap
     ethr =  1.69E-11,  avg # of iterations =  2.4

     negative rho (up, down):  0.000E+00 1.052E-03

     total cpu time spent up to now is    14926.5 secs

     total energy              =   -2126.07001732 Ry
     estimated scf accuracy    <       0.00000001 Ry

     total magnetization       =    19.00 Bohr mag/cell
     absolute magnetization    =    19.04 Bohr mag/cell

     iteration # 19     ecut=   100.00 Ry     beta= 0.40
     Davidson diagonalization with overlap
     ethr =  5.43E-12,  avg # of iterations =  3.1

     negative rho (up, down):  0.000E+00 1.052E-03

     total cpu time spent up to now is    15732.7 secs

     total energy              =   -2126.07001734 Ry
     estimated scf accuracy    <          2.9E-09 Ry

     total magnetization       =    19.00 Bohr mag/cell
     absolute magnetization    =    19.04 Bohr mag/cell

     iteration # 20     ecut=   100.00 Ry     beta= 0.40
     Davidson diagonalization with overlap
     ethr =  1.51E-12,  avg # of iterations =  3.6

     negative rho (up, down):  0.000E+00 1.052E-03

     total cpu time spent up to now is    16617.3 secs

     total energy              =   -2126.07001734 Ry
     estimated scf accuracy    <          1.9E-09 Ry

     total magnetization       =    19.00 Bohr mag/cell
     absolute magnetization    =    19.04 Bohr mag/cell

     iteration # 21     ecut=   100.00 Ry     beta= 0.40
     Davidson diagonalization with overlap
     ethr =  1.02E-12,  avg # of iterations =  2.0

     negative rho (up, down):  0.000E+00 1.052E-03

     total cpu time spent up to now is    17317.2 secs

     total energy              =   -2126.07001734 Ry
     estimated scf accuracy    <          2.3E-10 Ry

     total magnetization       =    19.00 Bohr mag/cell
     absolute magnetization    =    19.04 Bohr mag/cell

     iteration # 22     ecut=   100.00 Ry     beta= 0.40
     Davidson diagonalization with overlap
     ethr =  1.20E-13,  avg # of iterations =  4.1

     negative rho (up, down):  0.000E+00 1.052E-03

     Magnetic moment per site:
     atom:    1    charge:    7.9593    magn:    0.0010    constr:    0.0000
     atom:    2    charge:   12.7332    magn:    3.6004    constr:    0.0000
     atom:    3    charge:   12.7355    magn:    3.5867    constr:    0.0000
     atom:    4    charge:   12.7332    magn:    3.6004    constr:    0.0000
     atom:    5    charge:   12.7355    magn:    3.5867    constr:    0.0000
     atom:    6    charge:    0.7994    magn:    0.0118    constr:    0.0000
     atom:    7    charge:    0.7994    magn:    0.0091    constr:    0.0000
     atom:    8    charge:    0.7994    magn:    0.0118    constr:    0.0000
     atom:    9    charge:    0.7994    magn:    0.0091    constr:    0.0000
     atom:   10    charge:    4.1449    magn:    0.1287    constr:    0.0000
     atom:   11    charge:    4.1460    magn:    0.0831    constr:    0.0000
     atom:   12    charge:    4.1450    magn:    0.1287    constr:    0.0000
     atom:   13    charge:    4.1461    magn:    0.0831    constr:    0.0000
     atom:   14    charge:    4.1331    magn:    0.0902    constr:    0.0000
     atom:   15    charge:    4.1381    magn:    0.1322    constr:    0.0000
     atom:   16    charge:    4.1331    magn:    0.0902    constr:    0.0000
     atom:   17    charge:    4.1382    magn:    0.1322    constr:    0.0000
     atom:   18    charge:    4.1173    magn:    0.1538    constr:    0.0000
     atom:   19    charge:    4.1201    magn:    0.1334    constr:    0.0000
     atom:   20    charge:    4.1159    magn:    0.1459    constr:    0.0000
     atom:   21    charge:    4.1177    magn:    0.1222    constr:    0.0000
     atom:   22    charge:    4.1173    magn:    0.1538    constr:    0.0000
     atom:   23    charge:    4.1200    magn:    0.1334    constr:    0.0000
     atom:   24    charge:    4.1159    magn:    0.1459    constr:    0.0000
     atom:   25    charge:    4.1177    magn:    0.1222    constr:    0.0000

     total cpu time spent up to now is    18257.8 secs

     End of self-consistent calculation

 ------ SPIN UP ------------


          k = 0.0000 0.0000 0.0000 ( 32965 PWs)   bands (ev):

   -83.7645 -83.7639 -83.7181 -83.7172 -49.9095 -49.9093 -49.9089 -49.9087
   -49.7422 -49.7416 -49.6460 -49.6454 -49.6317 -49.6308 -49.6213 -49.6202
   -43.3948 -15.8030 -15.7962 -15.5014 -15.4273 -15.4173 -15.3772 -15.0856
   -13.0444 -13.0045 -12.9445 -12.8980 -12.7897 -12.7353 -12.7184 -12.6949
   -12.6535 -12.6360 -12.5019 -12.4652  -3.2084  -2.6588  -2.5446  -2.0521
    -1.5810  -1.1670  -1.0557  -0.9690  -0.8336  -0.5605  -0.5540  -0.4851
    -0.3436  -0.1336   0.0370   0.3346   0.4920   0.5432   1.1188   1.2154
     1.2276   1.3480   1.5200   1.5311   1.6707   1.7170   1.9903   2.1123
     2.2073   2.3307   2.4515   2.4861   2.5381   2.6455   2.6485   2.6994
     2.7388   3.0792   3.1790   3.2634   3.3836   3.3889   3.5261   3.5297
     3.7235   3.8529   3.9020   4.0197   4.0617   4.1125   4.3961   4.4152
     4.4767   4.5590   4.6062   4.6448   4.8336   4.8642   4.8833   5.0669
     5.1097   5.3199   5.4561   5.7364   5.9116   6.0742   6.2492   6.3287
    11.0225  13.1487  13.3733  13.8697  13.9269  14.3268  15.1139  15.3697
    15.4119  15.5140

     occupation numbers 
     1.0000   1.0000   1.0000   1.0000   1.0000   1.0000   1.0000   1.0000
     1.0000   1.0000   1.0000   1.0000   1.0000   1.0000   1.0000   1.0000
     1.0000   1.0000   1.0000   1.0000   1.0000   1.0000   1.0000   1.0000
     1.0000   1.0000   1.0000   1.0000   1.0000   1.0000   1.0000   1.0000
     1.0000   1.0000   1.0000   1.0000   1.0000   1.0000   1.0000   1.0000
     1.0000   1.0000   1.0000   1.0000   1.0000   1.0000   1.0000   1.0000
     1.0000   1.0000   1.0000   1.0000   1.0000   1.0000   1.0000   1.0000
     1.0000   1.0000   1.0000   1.0000   1.0000   1.0000   1.0000   1.0000
     1.0000   1.0000   1.0000   1.0000   1.0000   1.0000   1.0000   1.0000
     1.0000   1.0000   1.0000   1.0000   1.0000   1.0000   1.0000   1.0000
     1.0000   1.0000   1.0000   1.0000   1.0000   1.0000   1.0000   1.0000
     1.0000   1.0000   1.0000   1.0000   1.0000   1.0000   1.0000   1.0000
     1.0000   1.0000   1.0000   1.0000   1.0000   1.0000   1.0000   1.0000
     0.0000   0.0000   0.0000   0.0000   0.0000   0.0000   0.0000   0.0000
     0.0000   0.0000

          k = 0.0000 0.0000 0.2337 ( 32923 PWs)   bands (ev):

   -83.7645 -83.7639 -83.7181 -83.7172 -49.9095 -49.9093 -49.9089 -49.9087
   -49.7422 -49.7416 -49.6460 -49.6454 -49.6317 -49.6308 -49.6213 -49.6202
   -43.3948 -15.8289 -15.7516 -15.5241 -15.4175 -15.3847 -15.3686 -15.1006
   -13.0544 -13.0209 -12.9540 -12.9034 -12.7828 -12.7556 -12.7060 -12.6941
   -12.6603 -12.6390 -12.5066 -12.4722  -3.1821  -2.6488  -2.5457  -2.0682
    -1.5172  -1.1317  -1.0672  -0.9460  -0.8291  -0.6190  -0.5253  -0.4179
    -0.3292  -0.0964  -0.0156   0.3591   0.4995   0.5101   1.1274   1.2031
     1.2423   1.3779   1.4622   1.5925   1.6704   1.6863   1.9459   2.1459
     2.1953   2.2918   2.4244   2.4630   2.5210   2.5981   2.6351   2.6714
     2.8727   3.0593   3.1506   3.2762   3.3231   3.3571   3.4958   3.5657
     3.7347   3.8268   3.8803   4.0307   4.1019   4.1604   4.2984   4.4120
     4.4504   4.5604   4.5943   4.6402   4.8088   4.8610   4.9906   5.0972
     5.1337   5.3066   5.5027   5.7238   5.9099   6.0563   6.2206   6.3026
    11.1744  13.1966  13.4538  13.7978  14.0718  14.3159  15.1822  15.2237
    15.2421  15.3926

     occupation numbers 
     1.0000   1.0000   1.0000   1.0000   1.0000   1.0000   1.0000   1.0000
     1.0000   1.0000   1.0000   1.0000   1.0000   1.0000   1.0000   1.0000
     1.0000   1.0000   1.0000   1.0000   1.0000   1.0000   1.0000   1.0000
     1.0000   1.0000   1.0000   1.0000   1.0000   1.0000   1.0000   1.0000
     1.0000   1.0000   1.0000   1.0000   1.0000   1.0000   1.0000   1.0000
     1.0000   1.0000   1.0000   1.0000   1.0000   1.0000   1.0000   1.0000
     1.0000   1.0000   1.0000   1.0000   1.0000   1.0000   1.0000   1.0000
     1.0000   1.0000   1.0000   1.0000   1.0000   1.0000   1.0000   1.0000
     1.0000   1.0000   1.0000   1.0000   1.0000   1.0000   1.0000   1.0000
     1.0000   1.0000   1.0000   1.0000   1.0000   1.0000   1.0000   1.0000
     1.0000   1.0000   1.0000   1.0000   1.0000   1.0000   1.0000   1.0000
     1.0000   1.0000   1.0000   1.0000   1.0000   1.0000   1.0000   1.0000
     1.0000   1.0000   1.0000   1.0000   1.0000   1.0000   1.0000   1.0000
     0.0000   0.0000   0.0000   0.0000   0.0000   0.0000   0.0000   0.0000
     0.0000   0.0000

          k = 0.0000 0.0000 0.4675 ( 32947 PWs)   bands (ev):

   -83.7645 -83.7639 -83.7181 -83.7172 -49.9096 -49.9093 -49.9089 -49.9087
   -49.7422 -49.7416 -49.6460 -49.6454 -49.6317 -49.6308 -49.6213 -49.6202
   -43.3948 -15.8491 -15.6792 -15.5405 -15.4125 -15.3580 -15.3124 -15.1414
   -13.0795 -13.0614 -12.9816 -12.9232 -12.7897 -12.7654 -12.7027 -12.6836
   -12.6652 -12.6446 -12.5204 -12.4923  -3.1056  -2.6359  -2.5406  -2.1287
    -1.3415  -1.0804  -1.0438  -0.9167  -0.8088  -0.6489  -0.5199  -0.3468
    -0.1979  -0.1448  -0.0003   0.3492   0.4592   0.5642   1.1415   1.2115
     1.2628   1.3935   1.4725   1.6093   1.6679   1.6825   1.8262   2.1703
     2.1996   2.2822   2.3514   2.4022   2.4170   2.5011   2.6162   2.6629
     2.8488   3.0035   3.1469   3.2520   3.2682   3.3560   3.4227   3.6348
     3.6989   3.7787   3.9881   4.0193   4.0843   4.1430   4.2368   4.3536
     4.4259   4.4788   4.5802   4.7200   4.8614   4.9152   5.1029   5.1390
     5.2523   5.2735   5.5965   5.7054   5.9004   6.0125   6.1349   6.2245
    11.5833  13.3242  13.6691  13.8033  14.2705  14.3219  14.7627  15.0111
    15.1300  15.2269

     occupation numbers 
     1.0000   1.0000   1.0000   1.0000   1.0000   1.0000   1.0000   1.0000
     1.0000   1.0000   1.0000   1.0000   1.0000   1.0000   1.0000   1.0000
     1.0000   1.0000   1.0000   1.0000   1.0000   1.0000   1.0000   1.0000
     1.0000   1.0000   1.0000   1.0000   1.0000   1.0000   1.0000   1.0000
     1.0000   1.0000   1.0000   1.0000   1.0000   1.0000   1.0000   1.0000
     1.0000   1.0000   1.0000   1.0000   1.0000   1.0000   1.0000   1.0000
     1.0000   1.0000   1.0000   1.0000   1.0000   1.0000   1.0000   1.0000
     1.0000   1.0000   1.0000   1.0000   1.0000   1.0000   1.0000   1.0000
     1.0000   1.0000   1.0000   1.0000   1.0000   1.0000   1.0000   1.0000
     1.0000   1.0000   1.0000   1.0000   1.0000   1.0000   1.0000   1.0000
     1.0000   1.0000   1.0000   1.0000   1.0000   1.0000   1.0000   1.0000
     1.0000   1.0000   1.0000   1.0000   1.0000   1.0000   1.0000   1.0000
     1.0000   1.0000   1.0000   1.0000   1.0000   1.0000   1.0000   1.0000
     0.0000   0.0000   0.0000   0.0000   0.0000   0.0000   0.0000   0.0000
     0.0000   0.0000

          k = 0.0000 0.0000 0.7012 ( 32929 PWs)   bands (ev):

   -83.7645 -83.7639 -83.7181 -83.7172 -49.9096 -49.9093 -49.9089 -49.9086
   -49.7422 -49.7416 -49.6460 -49.6454 -49.6317 -49.6308 -49.6213 -49.6202
   -43.3948 -15.8653 -15.5857 -15.5352 -15.4090 -15.3381 -15.2860 -15.1764
   -13.1113 -13.1028 -13.0184 -12.9596 -12.8125 -12.7482 -12.7154 -12.6735
   -12.6546 -12.6337 -12.5423 -12.5214  -2.9880  -2.6534  -2.5158  -2.2332
    -1.1716  -1.0273  -0.9650  -0.8901  -0.7583  -0.6542  -0.5034  -0.3610
    -0.2630   0.0482   0.1202   0.1795   0.5877   0.6764   1.1306   1.2525
     1.3057   1.3449   1.5368   1.5638   1.6289   1.6751   1.7815   2.0802
     2.1673   2.2497   2.2780   2.3420   2.3966   2.4385   2.5284   2.6192
     2.6694   2.8662   3.0986   3.1446   3.3001   3.3946   3.5734   3.6112
     3.7179   3.8103   3.9033   3.9404   4.0433   4.1636   4.1779   4.2784
     4.4085   4.4534   4.6404   4.7755   4.9597   5.0861   5.1350   5.2098
     5.2435   5.4289   5.6787   5.7033   5.8764   5.9586   6.0069   6.0989
    12.1494  13.5093  13.8516  13.9093  14.1870  14.4001  14.5750  14.7940
    14.9261  14.9573

     occupation numbers 
     1.0000   1.0000   1.0000   1.0000   1.0000   1.0000   1.0000   1.0000
     1.0000   1.0000   1.0000   1.0000   1.0000   1.0000   1.0000   1.0000
     1.0000   1.0000   1.0000   1.0000   1.0000   1.0000   1.0000   1.0000
     1.0000   1.0000   1.0000   1.0000   1.0000   1.0000   1.0000   1.0000
     1.0000   1.0000   1.0000   1.0000   1.0000   1.0000   1.0000   1.0000
     1.0000   1.0000   1.0000   1.0000   1.0000   1.0000   1.0000   1.0000
     1.0000   1.0000   1.0000   1.0000   1.0000   1.0000   1.0000   1.0000
     1.0000   1.0000   1.0000   1.0000   1.0000   1.0000   1.0000   1.0000
     1.0000   1.0000   1.0000   1.0000   1.0000   1.0000   1.0000   1.0000
     1.0000   1.0000   1.0000   1.0000   1.0000   1.0000   1.0000   1.0000
     1.0000   1.0000   1.0000   1.0000   1.0000   1.0000   1.0000   1.0000
     1.0000   1.0000   1.0000   1.0000   1.0000   1.0000   1.0000   1.0000
     1.0000   1.0000   1.0000   1.0000   1.0000   1.0000   1.0000   1.0000
     0.0000   0.0000   0.0000   0.0000   0.0000   0.0000   0.0000   0.0000
     0.0000   0.0000

          k = 0.0000 0.0000 0.9349 ( 32952 PWs)   bands (ev):

   -83.7645 -83.7639 -83.7181 -83.7172 -49.9096 -49.9093 -49.9089 -49.9086
   -49.7422 -49.7416 -49.6460 -49.6454 -49.6317 -49.6308 -49.6213 -49.6202
   -43.3948 -15.8752 -15.5335 -15.4717 -15.4073 -15.3635 -15.3153 -15.1642
   -13.1385 -13.1223 -13.0454 -12.9911 -12.8206 -12.7419 -12.7160 -12.6843
   -12.6237 -12.6136 -12.5692 -12.5485  -2.8500  -2.7267  -2.4595  -2.3498
    -1.1104  -1.0302  -0.8580  -0.8287  -0.6642  -0.6287  -0.5277  -0.5127
    -0.1766  -0.0197   0.2167   0.2399   0.8084   0.8775   1.0608   1.1564
     1.2988   1.3633   1.4927   1.5314   1.5538   1.6299   1.8271   1.9884
     2.1167   2.2020   2.2612   2.2689   2.3335   2.4208   2.5034   2.6361
     2.6692   2.8157   2.9241   2.9722   3.3263   3.5528   3.5822   3.6961
     3.7586   3.8215   3.8431   3.8919   3.9404   4.0386   4.2023   4.2670
     4.3982   4.4503   4.7437   4.8190   5.0088   5.0985   5.1234   5.2884
     5.4175   5.6053   5.6789   5.7198   5.7835   5.8958   5.9399   5.9708
    12.7799  13.4026  13.7169  14.0366  14.2867  14.3882  14.5600  14.6238
    14.8851  14.9639

     occupation numbers 
     1.0000   1.0000   1.0000   1.0000   1.0000   1.0000   1.0000   1.0000
     1.0000   1.0000   1.0000   1.0000   1.0000   1.0000   1.0000   1.0000
     1.0000   1.0000   1.0000   1.0000   1.0000   1.0000   1.0000   1.0000
     1.0000   1.0000   1.0000   1.0000   1.0000   1.0000   1.0000   1.0000
     1.0000   1.0000   1.0000   1.0000   1.0000   1.0000   1.0000   1.0000
     1.0000   1.0000   1.0000   1.0000   1.0000   1.0000   1.0000   1.0000
     1.0000   1.0000   1.0000   1.0000   1.0000   1.0000   1.0000   1.0000
     1.0000   1.0000   1.0000   1.0000   1.0000   1.0000   1.0000   1.0000
     1.0000   1.0000   1.0000   1.0000   1.0000   1.0000   1.0000   1.0000
     1.0000   1.0000   1.0000   1.0000   1.0000   1.0000   1.0000   1.0000
     1.0000   1.0000   1.0000   1.0000   1.0000   1.0000   1.0000   1.0000
     1.0000   1.0000   1.0000   1.0000   1.0000   1.0000   1.0000   1.0000
     1.0000   1.0000   1.0000   1.0000   1.0000   1.0000   1.0000   1.0000
     0.0000   0.0000   0.0000   0.0000   0.0000   0.0000   0.0000   0.0000
     0.0000   0.0000

          k = 0.0000 0.2391 0.0000 ( 32916 PWs)   bands (ev):

   -83.7645 -83.7639 -83.7181 -83.7172 -49.9095 -49.9093 -49.9089 -49.9087
   -49.7422 -49.7416 -49.6460 -49.6454 -49.6317 -49.6308 -49.6213 -49.6202
   -43.3948 -15.8265 -15.7520 -15.5005 -15.4268 -15.4180 -15.3820 -15.0981
   -13.0547 -13.0026 -12.9380 -12.9013 -12.8427 -12.7497 -12.7163 -12.6748
   -12.6508 -12.6010 -12.4891 -12.4788  -3.1787  -2.6821  -2.5127  -2.0590
    -1.5505  -1.1770  -1.0562  -0.9736  -0.7875  -0.5701  -0.5346  -0.4627
    -0.3115  -0.1326   0.0767   0.3530   0.4404   0.5774   1.1543   1.1974
     1.2307   1.3081   1.4020   1.4587   1.5688   1.8199   2.0435   2.1249
     2.3092   2.3750   2.4094   2.4231   2.4918   2.5048   2.6612   2.6792
     2.7971   3.0819   3.2244   3.2475   3.3580   3.4268   3.5008   3.5744
     3.7675   3.7846   3.8755   3.9490   4.0630   4.1138   4.3225   4.3755
     4.4459   4.4861   4.6164   4.7311   4.8510   4.8960   4.9020   5.0794
     5.1109   5.3013   5.5419   5.6607   5.8875   5.9995   6.3448   6.3565
    11.1808  13.2412  13.4675  13.7962  14.0516  14.4237  15.0540  15.2624
    15.3771  15.5025

     occupation numbers 
     1.0000   1.0000   1.0000   1.0000   1.0000   1.0000   1.0000   1.0000
     1.0000   1.0000   1.0000   1.0000   1.0000   1.0000   1.0000   1.0000
     1.0000   1.0000   1.0000   1.0000   1.0000   1.0000   1.0000   1.0000
     1.0000   1.0000   1.0000   1.0000   1.0000   1.0000   1.0000   1.0000
     1.0000   1.0000   1.0000   1.0000   1.0000   1.0000   1.0000   1.0000
     1.0000   1.0000   1.0000   1.0000   1.0000   1.0000   1.0000   1.0000
     1.0000   1.0000   1.0000   1.0000   1.0000   1.0000   1.0000   1.0000
     1.0000   1.0000   1.0000   1.0000   1.0000   1.0000   1.0000   1.0000
     1.0000   1.0000   1.0000   1.0000   1.0000   1.0000   1.0000   1.0000
     1.0000   1.0000   1.0000   1.0000   1.0000   1.0000   1.0000   1.0000
     1.0000   1.0000   1.0000   1.0000   1.0000   1.0000   1.0000   1.0000
     1.0000   1.0000   1.0000   1.0000   1.0000   1.0000   1.0000   1.0000
     1.0000   1.0000   1.0000   1.0000   1.0000   1.0000   1.0000   1.0000
     0.0000   0.0000   0.0000   0.0000   0.0000   0.0000   0.0000   0.0000
     0.0000   0.0000

          k = 0.0000 0.2391 0.2337 ( 32949 PWs)   bands (ev):

   -83.7645 -83.7639 -83.7181 -83.7172 -49.9095 -49.9093 -49.9089 -49.9087
   -49.7422 -49.7416 -49.6460 -49.6454 -49.6317 -49.6308 -49.6213 -49.6202
   -43.3948 -15.7930 -15.7730 -15.5175 -15.4202 -15.3940 -15.3662 -15.1072
   -13.0630 -13.0176 -12.9436 -12.9083 -12.8474 -12.7532 -12.7218 -12.6817
   -12.6483 -12.5988 -12.4967 -12.4826  -3.1530  -2.6707  -2.5134  -2.0748
    -1.4902  -1.1425  -1.0591  -0.9569  -0.7814  -0.6152  -0.5069  -0.4029
    -0.2921  -0.1004   0.0270   0.3288   0.4521   0.5814   1.1510   1.1895
     1.2699   1.2937   1.3899   1.4933   1.5281   1.7992   2.0444   2.1170
     2.2401   2.3459   2.3572   2.4586   2.4928   2.5363   2.6321   2.6708
     2.9199   3.0412   3.1830   3.2668   3.3074   3.4430   3.4570   3.5679
     3.7736   3.8010   3.8353   3.9600   4.0428   4.1757   4.2562   4.3769
     4.4208   4.4861   4.6206   4.6732   4.8579   4.8939   4.9896   5.1126
     5.1271   5.2934   5.5797   5.6298   5.8699   6.0092   6.3239   6.3398
    11.3273  13.2894  13.5444  13.8076  14.1065  14.4066  15.1064  15.1426
    15.2150  15.3915

     occupation numbers 
     1.0000   1.0000   1.0000   1.0000   1.0000   1.0000   1.0000   1.0000
     1.0000   1.0000   1.0000   1.0000   1.0000   1.0000   1.0000   1.0000
     1.0000   1.0000   1.0000   1.0000   1.0000   1.0000   1.0000   1.0000
     1.0000   1.0000   1.0000   1.0000   1.0000   1.0000   1.0000   1.0000
     1.0000   1.0000   1.0000   1.0000   1.0000   1.0000   1.0000   1.0000
     1.0000   1.0000   1.0000   1.0000   1.0000   1.0000   1.0000   1.0000
     1.0000   1.0000   1.0000   1.0000   1.0000   1.0000   1.0000   1.0000
     1.0000   1.0000   1.0000   1.0000   1.0000   1.0000   1.0000   1.0000
     1.0000   1.0000   1.0000   1.0000   1.0000   1.0000   1.0000   1.0000
     1.0000   1.0000   1.0000   1.0000   1.0000   1.0000   1.0000   1.0000
     1.0000   1.0000   1.0000   1.0000   1.0000   1.0000   1.0000   1.0000
     1.0000   1.0000   1.0000   1.0000   1.0000   1.0000   1.0000   1.0000
     1.0000   1.0000   1.0000   1.0000   1.0000   1.0000   1.0000   1.0000
     0.0000   0.0000   0.0000   0.0000   0.0000   0.0000   0.0000   0.0000
     0.0000   0.0000

          k = 0.0000 0.2391 0.4675 ( 32955 PWs)   bands (ev):

   -83.7645 -83.7639 -83.7181 -83.7172 -49.9095 -49.9093 -49.9089 -49.9087
   -49.7422 -49.7416 -49.6460 -49.6454 -49.6317 -49.6308 -49.6213 -49.6202
   -43.3948 -15.8172 -15.7046 -15.5298 -15.4130 -15.3671 -15.3179 -15.1373
   -13.0872 -13.0626 -12.9697 -12.9286 -12.8368 -12.7802 -12.7260 -12.6777
   -12.6562 -12.5916 -12.5116 -12.4964  -3.0777  -2.6521  -2.5108  -2.1335
    -1.3229  -1.0638  -1.0521  -0.9269  -0.7595  -0.6428  -0.5008  -0.3048
    -0.1896  -0.0997  -0.0099   0.2550   0.4975   0.5968   1.1452   1.1982
     1.2254   1.3030   1.4594   1.4901   1.5712   1.7617   1.9711   2.1372
     2.1728   2.2909   2.3295   2.4080   2.4778   2.5290   2.5732   2.6524
     2.8684   3.0358   3.1531   3.2493   3.2620   3.3303   3.4752   3.5963
     3.6628   3.8140   3.9304   3.9607   4.0844   4.0896   4.2255   4.3018
     4.3979   4.5113   4.6247   4.6735   4.8699   4.9484   5.1147   5.1278
     5.2243   5.2701   5.5781   5.6622   5.8312   6.0122   6.2639   6.2882
    11.7238  13.4139  13.7533  13.8701  14.2593  14.3978  14.7537  14.9832
    15.0792  15.2899

     occupation numbers 
     1.0000   1.0000   1.0000   1.0000   1.0000   1.0000   1.0000   1.0000
     1.0000   1.0000   1.0000   1.0000   1.0000   1.0000   1.0000   1.0000
     1.0000   1.0000   1.0000   1.0000   1.0000   1.0000   1.0000   1.0000
     1.0000   1.0000   1.0000   1.0000   1.0000   1.0000   1.0000   1.0000
     1.0000   1.0000   1.0000   1.0000   1.0000   1.0000   1.0000   1.0000
     1.0000   1.0000   1.0000   1.0000   1.0000   1.0000   1.0000   1.0000
     1.0000   1.0000   1.0000   1.0000   1.0000   1.0000   1.0000   1.0000
     1.0000   1.0000   1.0000   1.0000   1.0000   1.0000   1.0000   1.0000
     1.0000   1.0000   1.0000   1.0000   1.0000   1.0000   1.0000   1.0000
     1.0000   1.0000   1.0000   1.0000   1.0000   1.0000   1.0000   1.0000
     1.0000   1.0000   1.0000   1.0000   1.0000   1.0000   1.0000   1.0000
     1.0000   1.0000   1.0000   1.0000   1.0000   1.0000   1.0000   1.0000
     1.0000   1.0000   1.0000   1.0000   1.0000   1.0000   1.0000   1.0000
     0.0000   0.0000   0.0000   0.0000   0.0000   0.0000   0.0000   0.0000
     0.0000   0.0000

          k = 0.0000 0.2391 0.7012 ( 32947 PWs)   bands (ev):

   -83.7645 -83.7639 -83.7181 -83.7172 -49.9096 -49.9093 -49.9089 -49.9087
   -49.7422 -49.7416 -49.6460 -49.6454 -49.6317 -49.6308 -49.6213 -49.6202
   -43.3948 -15.8432 -15.6064 -15.5230 -15.4090 -15.3439 -15.3060 -15.1563
   -13.1168 -13.1119 -13.0073 -12.9649 -12.8313 -12.7891 -12.7340 -12.6757
   -12.6519 -12.5777 -12.5312 -12.5187  -2.9623  -2.6594  -2.4919  -2.2359
    -1.1523  -1.0141  -0.9655  -0.8973  -0.7094  -0.6429  -0.4894  -0.3323
    -0.2126   0.0497   0.1091   0.1331   0.6054   0.6475   1.0764   1.1642
     1.2352   1.3578   1.4703   1.5486   1.6433   1.7719   1.8584   2.0649
     2.1422   2.2516   2.2926   2.3501   2.4397   2.4729   2.5191   2.6163
     2.6441   2.8741   3.0836   3.1476   3.2906   3.3944   3.5487   3.6085
     3.6508   3.8253   3.8739   3.9933   4.0257   4.0992   4.1309   4.2749
     4.3801   4.4780   4.7002   4.7686   4.9321   5.0463   5.1339   5.1963
     5.2282   5.3763   5.5353   5.6697   5.8483   6.0112   6.1696   6.2132
    12.2771  13.5975  13.9301  14.0063  14.2617  14.4266  14.5457  14.7588
    14.9004  14.9970

     occupation numbers 
     1.0000   1.0000   1.0000   1.0000   1.0000   1.0000   1.0000   1.0000
     1.0000   1.0000   1.0000   1.0000   1.0000   1.0000   1.0000   1.0000
     1.0000   1.0000   1.0000   1.0000   1.0000   1.0000   1.0000   1.0000
     1.0000   1.0000   1.0000   1.0000   1.0000   1.0000   1.0000   1.0000
     1.0000   1.0000   1.0000   1.0000   1.0000   1.0000   1.0000   1.0000
     1.0000   1.0000   1.0000   1.0000   1.0000   1.0000   1.0000   1.0000
     1.0000   1.0000   1.0000   1.0000   1.0000   1.0000   1.0000   1.0000
     1.0000   1.0000   1.0000   1.0000   1.0000   1.0000   1.0000   1.0000
     1.0000   1.0000   1.0000   1.0000   1.0000   1.0000   1.0000   1.0000
     1.0000   1.0000   1.0000   1.0000   1.0000   1.0000   1.0000   1.0000
     1.0000   1.0000   1.0000   1.0000   1.0000   1.0000   1.0000   1.0000
     1.0000   1.0000   1.0000   1.0000   1.0000   1.0000   1.0000   1.0000
     1.0000   1.0000   1.0000   1.0000   1.0000   1.0000   1.0000   1.0000
     0.0000   0.0000   0.0000   0.0000   0.0000   0.0000   0.0000   0.0000
     0.0000   0.0000

          k = 0.0000 0.2391 0.9349 ( 32946 PWs)   bands (ev):

   -83.7645 -83.7639 -83.7181 -83.7172 -49.9096 -49.9093 -49.9089 -49.9086
   -49.7422 -49.7416 -49.6460 -49.6454 -49.6317 -49.6308 -49.6213 -49.6202
   -43.3948 -15.8611 -15.5227 -15.4842 -15.4072 -15.3739 -15.3242 -15.1482
   -13.1442 -13.1332 -13.0407 -12.9933 -12.8368 -12.7807 -12.7300 -12.6923
   -12.6261 -12.5607 -12.5578 -12.5372  -2.8288  -2.7190  -2.4467  -2.3473
    -1.0836  -1.0181  -0.8594  -0.8351  -0.6233  -0.6133  -0.5078  -0.4799
    -0.1470  -0.0407   0.2210   0.2353   0.7643   0.7923   0.9452   1.0096
     1.3436   1.4039   1.4848   1.6094   1.6722   1.6957   1.8227   1.9624
     2.1167   2.2146   2.2578   2.2957   2.3583   2.4255   2.4801   2.5976
     2.6262   2.7929   2.9081   3.0207   3.3203   3.5135   3.5578   3.6449
     3.7211   3.7979   3.8428   3.9612   3.9743   4.0341   4.1144   4.2861
     4.3701   4.4584   4.7808   4.8333   4.9952   5.0985   5.1270   5.2488
     5.2770   5.4617   5.5154   5.6296   5.8980   6.0023   6.0786   6.1471
    12.8971  13.5031  13.7985  14.1474  14.3500  14.4416  14.5313  14.6396
    14.8496  14.9631

     occupation numbers 
     1.0000   1.0000   1.0000   1.0000   1.0000   1.0000   1.0000   1.0000
     1.0000   1.0000   1.0000   1.0000   1.0000   1.0000   1.0000   1.0000
     1.0000   1.0000   1.0000   1.0000   1.0000   1.0000   1.0000   1.0000
     1.0000   1.0000   1.0000   1.0000   1.0000   1.0000   1.0000   1.0000
     1.0000   1.0000   1.0000   1.0000   1.0000   1.0000   1.0000   1.0000
     1.0000   1.0000   1.0000   1.0000   1.0000   1.0000   1.0000   1.0000
     1.0000   1.0000   1.0000   1.0000   1.0000   1.0000   1.0000   1.0000
     1.0000   1.0000   1.0000   1.0000   1.0000   1.0000   1.0000   1.0000
     1.0000   1.0000   1.0000   1.0000   1.0000   1.0000   1.0000   1.0000
     1.0000   1.0000   1.0000   1.0000   1.0000   1.0000   1.0000   1.0000
     1.0000   1.0000   1.0000   1.0000   1.0000   1.0000   1.0000   1.0000
     1.0000   1.0000   1.0000   1.0000   1.0000   1.0000   1.0000   1.0000
     1.0000   1.0000   1.0000   1.0000   1.0000   1.0000   1.0000   1.0000
     0.0000   0.0000   0.0000   0.0000   0.0000   0.0000   0.0000   0.0000
     0.0000   0.0000

          k = 0.0000 0.4781 0.0000 ( 33016 PWs)   bands (ev):

   -83.7645 -83.7639 -83.7181 -83.7172 -49.9095 -49.9093 -49.9089 -49.9087
   -49.7422 -49.7416 -49.6460 -49.6454 -49.6317 -49.6308 -49.6213 -49.6202
   -43.3948 -15.8385 -15.6841 -15.4978 -15.4341 -15.4194 -15.3955 -15.1245
   -13.0760 -12.9949 -12.9471 -12.9233 -12.8762 -12.7826 -12.6905 -12.6661
   -12.6580 -12.5387 -12.5110 -12.4658  -3.0969  -2.7518  -2.4236  -2.0966
    -1.4661  -1.2079  -1.0521  -0.9836  -0.6996  -0.5881  -0.4683  -0.3808
    -0.2795  -0.0859   0.1402   0.2995   0.4479   0.6551   1.0757   1.1120
     1.2461   1.2785   1.3240   1.3810   1.4668   1.8575   2.0133   2.1648
     2.1686   2.2817   2.3411   2.4282   2.5143   2.5529   2.6699   2.7333
     2.9493   3.0467   3.1847   3.2784   3.3343   3.3704   3.4185   3.6187
     3.7497   3.7942   3.8551   3.9299   4.0503   4.0886   4.1801   4.2486
     4.3528   4.3880   4.7816   4.7963   4.8763   4.9023   4.9582   5.0921
     5.1592   5.2738   5.4602   5.5953   5.7987   6.1418   6.3836   6.4065
    11.6131  13.4126  13.5578  13.7296  14.3069  14.6669  14.8557  15.0635
    15.2915  15.5126

     occupation numbers 
     1.0000   1.0000   1.0000   1.0000   1.0000   1.0000   1.0000   1.0000
     1.0000   1.0000   1.0000   1.0000   1.0000   1.0000   1.0000   1.0000
     1.0000   1.0000   1.0000   1.0000   1.0000   1.0000   1.0000   1.0000
     1.0000   1.0000   1.0000   1.0000   1.0000   1.0000   1.0000   1.0000
     1.0000   1.0000   1.0000   1.0000   1.0000   1.0000   1.0000   1.0000
     1.0000   1.0000   1.0000   1.0000   1.0000   1.0000   1.0000   1.0000
     1.0000   1.0000   1.0000   1.0000   1.0000   1.0000   1.0000   1.0000
     1.0000   1.0000   1.0000   1.0000   1.0000   1.0000   1.0000   1.0000
     1.0000   1.0000   1.0000   1.0000   1.0000   1.0000   1.0000   1.0000
     1.0000   1.0000   1.0000   1.0000   1.0000   1.0000   1.0000   1.0000
     1.0000   1.0000   1.0000   1.0000   1.0000   1.0000   1.0000   1.0000
     1.0000   1.0000   1.0000   1.0000   1.0000   1.0000   1.0000   1.0000
     1.0000   1.0000   1.0000   1.0000   1.0000   1.0000   1.0000   1.0000
     0.0000   0.0000   0.0000   0.0000   0.0000   0.0000   0.0000   0.0000
     0.0000   0.0000

          k = 0.0000 0.4781 0.2337 ( 32976 PWs)   bands (ev):

   -83.7645 -83.7639 -83.7181 -83.7172 -49.9095 -49.9093 -49.9089 -49.9087
   -49.7422 -49.7416 -49.6460 -49.6454 -49.6317 -49.6308 -49.6213 -49.6202
   -43.3948 -15.8055 -15.7151 -15.5070 -15.4306 -15.4017 -15.3691 -15.1313
   -13.0813 -13.0079 -12.9502 -12.9243 -12.8985 -12.7883 -12.7049 -12.6640
   -12.6580 -12.5310 -12.5125 -12.4733  -3.0725  -2.7364  -2.4254  -2.1109
    -1.4131  -1.1724  -1.0410  -0.9718  -0.6946  -0.6059  -0.4295  -0.3608
    -0.2275  -0.0829   0.0924   0.2372   0.4840   0.6615   1.0473   1.0861
     1.2262   1.2944   1.3314   1.4003   1.4752   1.8872   1.9896   2.1031
     2.1523   2.2392   2.3526   2.4389   2.5121   2.5636   2.7130   2.7397
     2.9946   3.0268   3.1796   3.2553   3.3194   3.3790   3.4394   3.5619
     3.7066   3.7843   3.8720   3.8992   3.9632   4.1664   4.1820   4.2534
     4.2948   4.3797   4.7380   4.8064   4.9044   4.9483   4.9888   5.1151
     5.1612   5.2710   5.4174   5.5812   5.8292   6.1484   6.3822   6.3932
    11.7449  13.4507  13.6222  13.8102  14.3132  14.6217  14.9346  14.9868
    15.1638  15.4124

     occupation numbers 
     1.0000   1.0000   1.0000   1.0000   1.0000   1.0000   1.0000   1.0000
     1.0000   1.0000   1.0000   1.0000   1.0000   1.0000   1.0000   1.0000
     1.0000   1.0000   1.0000   1.0000   1.0000   1.0000   1.0000   1.0000
     1.0000   1.0000   1.0000   1.0000   1.0000   1.0000   1.0000   1.0000
     1.0000   1.0000   1.0000   1.0000   1.0000   1.0000   1.0000   1.0000
     1.0000   1.0000   1.0000   1.0000   1.0000   1.0000   1.0000   1.0000
     1.0000   1.0000   1.0000   1.0000   1.0000   1.0000   1.0000   1.0000
     1.0000   1.0000   1.0000   1.0000   1.0000   1.0000   1.0000   1.0000
     1.0000   1.0000   1.0000   1.0000   1.0000   1.0000   1.0000   1.0000
     1.0000   1.0000   1.0000   1.0000   1.0000   1.0000   1.0000   1.0000
     1.0000   1.0000   1.0000   1.0000   1.0000   1.0000   1.0000   1.0000
     1.0000   1.0000   1.0000   1.0000   1.0000   1.0000   1.0000   1.0000
     1.0000   1.0000   1.0000   1.0000   1.0000   1.0000   1.0000   1.0000
     0.0000   0.0000   0.0000   0.0000   0.0000   0.0000   0.0000   0.0000
     0.0000   0.0000

          k = 0.0000 0.4781 0.4675 ( 32955 PWs)   bands (ev):

   -83.7645 -83.7639 -83.7181 -83.7172 -49.9095 -49.9093 -49.9089 -49.9087
   -49.7422 -49.7416 -49.6461 -49.6454 -49.6317 -49.6308 -49.6213 -49.6202
   -43.3948 -15.7836 -15.7085 -15.5084 -15.4165 -15.3879 -15.3163 -15.1518
   -13.1023 -13.0628 -12.9575 -12.9397 -12.9105 -12.8163 -12.7260 -12.6726
   -12.6451 -12.5259 -12.5136 -12.4860  -3.0015  -2.7037  -2.4311  -2.1616
    -1.2648  -1.0809  -1.0158  -0.9410  -0.6729  -0.6207  -0.4235  -0.2284
    -0.1465  -0.0401  -0.0216   0.1412   0.5079   0.6754   0.9610   1.0536
     1.1773   1.3285   1.3618   1.5215   1.5457   1.8313   2.0274   2.0490
     2.1048   2.1465   2.3479   2.4619   2.4869   2.5646   2.6812   2.7422
     2.8541   3.0638   3.1608   3.2406   3.3109   3.3299   3.4305   3.5037
     3.6161   3.7852   3.8545   3.8998   3.9708   4.1086   4.1774   4.2270
     4.2713   4.4329   4.6920   4.8065   4.9331   4.9860   5.0980   5.1564
[...]
     atom   10 type  3   force =    -0.01457215   -0.00095546    0.07715339
     atom   11 type  3   force =     0.00766545   -0.00077009    0.07965795
     atom   12 type  3   force =     0.01457215    0.00095546   -0.07715339
     atom   13 type  3   force =    -0.00766545    0.00077009   -0.07965795
     atom   14 type  3   force =    -0.07092761   -0.00024877    0.02818231
     atom   15 type  3   force =     0.06756992    0.00077222    0.03275643
     atom   16 type  3   force =     0.07092761    0.00024877   -0.02818231
     atom   17 type  3   force =    -0.06756992   -0.00077222   -0.03275643
     atom   18 type  3   force =     0.02849350    0.06104904   -0.03295394
     atom   19 type  3   force =    -0.02993527   -0.06202680   -0.03918578
     atom   20 type  3   force =    -0.03084849    0.06350244    0.03376621
     atom   21 type  3   force =     0.03275786   -0.06419301    0.03130631
     atom   22 type  3   force =    -0.02849350   -0.06104904    0.03295394
     atom   23 type  3   force =     0.02993527    0.06202680    0.03918578
     atom   24 type  3   force =     0.03084849   -0.06350244   -0.03376621
     atom   25 type  3   force =    -0.03275786    0.06419301   -0.03130631
     The non-local contrib.  to forces
     atom    1 type  2   force =     0.00000000    0.00000000    0.00000000
     atom    2 type  1   force =     0.10173505   -0.06306964    0.12677336
     atom    3 type  1   force =     0.07853526    0.00551159    0.10543347
     atom    4 type  1   force =    -0.10173505    0.06306964   -0.12677336
     atom    5 type  1   force =    -0.07853526   -0.00551159   -0.10543347
     atom    6 type  4   force =    -0.01368445    0.00498449   -0.05021384
     atom    7 type  4   force =     0.01995130    0.00336832   -0.02882812
     atom    8 type  4   force =     0.01368445   -0.00498449    0.05021384
     atom    9 type  4   force =    -0.01995130   -0.00336832    0.02882812
     atom   10 type  3   force =     0.30631175    0.02108143   -1.46273397
     atom   11 type  3   force =    -0.17886064    0.01737812   -1.44181164
     atom   12 type  3   force =    -0.30631175   -0.02108143    1.46273397
     atom   13 type  3   force =     0.17886064   -0.01737812    1.44181164
     atom   14 type  3   force =     1.18753884    0.01035488   -0.53246790
     atom   15 type  3   force =    -1.15866549   -0.01328472   -0.63817284
     atom   16 type  3   force =    -1.18753884   -0.01035488    0.53246790
     atom   17 type  3   force =     1.15866549    0.01328472    0.63817284
     atom   18 type  3   force =    -0.51469435   -1.05517229    0.71097126
     atom   19 type  3   force =     0.56683873    1.06592908    0.78399600
     atom   20 type  3   force =     0.55541862   -1.08115056   -0.72073431
     atom   21 type  3   force =    -0.61804429    1.07346229   -0.66302358
     atom   22 type  3   force =     0.51469435    1.05517229   -0.71097126
     atom   23 type  3   force =    -0.56683873   -1.06592908   -0.78399600
     atom   24 type  3   force =    -0.55541862    1.08115056    0.72073431
     atom   25 type  3   force =     0.61804429   -1.07346229    0.66302358
     The ionic contribution  to forces
     atom    1 type  2   force =    -0.00000631    0.00005705   -0.00004153
     atom    2 type  1   force =    -1.99870348    1.06516948   -0.69270725
     atom    3 type  1   force =   -10.18604521   -1.77729133   -0.66419966
     atom    4 type  1   force =     1.99845238   -1.06513575    0.69256375
     atom    5 type  1   force =    10.18615550    1.77754806    0.66414815
     atom    6 type  4   force =    -4.59711161    0.05248301    0.43920233
     atom    7 type  4   force =     1.50015775   -1.67347832    0.96991199
     atom    8 type  4   force =     4.59717110   -0.05248256   -0.43933976
     atom    9 type  4   force =    -1.50031726    1.67346990   -0.96954412
     atom   10 type  3   force =   -11.97576931   -0.08935500    2.96976128
     atom   11 type  3   force =     6.26266238   -2.71037710    1.99793694
     atom   12 type  3   force =    11.97594806    0.08933735   -2.96945865
     atom   13 type  3   force =    -6.26261587    2.71036167   -1.99833623
     atom   14 type  3   force =     0.52695794    2.75505454    4.24131542
     atom   15 type  3   force =    -3.09769011    0.10371871    6.74164462
     atom   16 type  3   force =    -0.52656214   -2.75505941   -4.24121084
     atom   17 type  3   force =     3.09754895   -0.10367615   -6.74161480
     atom   18 type  3   force =    -5.01846118    3.31078279   -2.82009948
     atom   19 type  3   force =     1.46092149   -2.82649273   -3.29906277
     atom   20 type  3   force =     5.50483589    3.45939542    2.96930072
     atom   21 type  3   force =     1.53229833   -3.09160203    0.75518777
     atom   22 type  3   force =     5.01845077   -3.31102063    2.81998010
     atom   23 type  3   force =    -1.46103544    2.82633533    3.29916983
     atom   24 type  3   force =    -5.50478550   -3.45938090   -2.96929440
     atom   25 type  3   force =    -1.53245713    3.09163859   -0.75521343
     The local contribution  to forces
     atom    1 type  2   force =    -0.00443883   -0.00174458   -0.00220550
     atom    2 type  1   force =     1.89701951   -1.01488587    0.56607050
     atom    3 type  1   force =    10.10370794    1.76828389    0.55692641
     atom    4 type  1   force =    -1.91867421    1.00405389   -0.57619609
     atom    5 type  1   force =   -10.12159068   -1.77663096   -0.56763258
     atom    6 type  4   force =     4.60871304   -0.05724167   -0.40074025
     atom    7 type  4   force =    -1.51538810    1.66893266   -0.94518088
     atom    8 type  4   force =    -4.60859342    0.05715417    0.40063831
     atom    9 type  4   force =     1.51548049   -1.66886314    0.94528237
     atom   10 type  3   force =    11.65630952    0.06617566   -1.44166443
     atom   11 type  3   force =    -6.08072968    2.69117418   -0.48967615
     atom   12 type  3   force =   -11.65983979   -0.06881242    1.44069884
     atom   13 type  3   force =     6.07570088   -2.69349127    0.48613434
     atom   14 type  3   force =    -1.77783521   -2.76685422   -3.68646716
     atom   15 type  3   force =     4.31336504   -0.09108015   -6.07762104
     atom   16 type  3   force =     1.77486219    2.76414279    3.68411332
     atom   17 type  3   force =    -4.31681847    0.08841990    6.07474592
     atom   18 type  3   force =     5.55499543   -2.20385081    2.08076932
     atom   19 type  3   force =    -2.05579394    1.70551337    2.48136167
     atom   20 type  3   force =    -6.08945943   -2.32435830   -2.22217578
     atom   21 type  3   force =    -0.88888741    1.96128551   -0.06747616
     atom   22 type  3   force =    -5.56031356    2.20185340   -2.08317738
     atom   23 type  3   force =     2.05089965   -1.70778987   -2.48354719
     atom   24 type  3   force =     6.08399266    2.32187782    2.21928706
     atom   25 type  3   force =     0.88388160   -1.96343244    0.06529293
     The core correction contribution to forces
     atom    1 type  2   force =     0.00000000    0.00000000    0.00000000
     atom    2 type  1   force =    -0.00168023    0.00100255   -0.00052388
     atom    3 type  1   force =    -0.00030059   -0.00006608    0.00072236
     atom    4 type  1   force =     0.00242050   -0.00063519    0.00086052
     atom    5 type  1   force =     0.00090442    0.00036545   -0.00036888
     atom    6 type  4   force =     0.00155400   -0.00026982    0.00321117
     atom    7 type  4   force =    -0.00158988    0.00038421    0.00105500
     atom    8 type  4   force =    -0.00153625    0.00027626   -0.00320137
     atom    9 type  4   force =     0.00160990   -0.00037630   -0.00105194
     atom   10 type  3   force =    -0.00310501   -0.00018592    0.01145419
     atom   11 type  3   force =     0.00209895   -0.00011224    0.01123400
     atom   12 type  3   force =     0.00310104    0.00018431   -0.01145722
     atom   13 type  3   force =    -0.00210248    0.00011058   -0.01123746
     atom   14 type  3   force =    -0.00887827   -0.00016325    0.00467642
     atom   15 type  3   force =     0.00875644    0.00010883    0.00548149
     atom   16 type  3   force =     0.00887270    0.00016150   -0.00467774
     atom   17 type  3   force =    -0.00876285   -0.00011053   -0.00548319
     atom   18 type  3   force =     0.00398364    0.00816698   -0.00585737
     atom   19 type  3   force =    -0.00440955   -0.00819345   -0.00652051
     atom   20 type  3   force =    -0.00434954    0.00837997    0.00593245
     atom   21 type  3   force =     0.00480840   -0.00839301    0.00551066
     atom   22 type  3   force =    -0.00398747   -0.00817147    0.00585653
     atom   23 type  3   force =     0.00440432    0.00818918    0.00651707
     atom   24 type  3   force =     0.00434682   -0.00838142   -0.00593298
     atom   25 type  3   force =    -0.00481229    0.00839140   -0.00551460
     The Hubbard contrib.    to forces
     atom    1 type  2   force =     0.00000000    0.00000000    0.00000000
     atom    2 type  1   force =     0.00000000    0.00000000    0.00000000
     atom    3 type  1   force =     0.00000000    0.00000000    0.00000000
     atom    4 type  1   force =     0.00000000    0.00000000    0.00000000
     atom    5 type  1   force =     0.00000000    0.00000000    0.00000000
     atom    6 type  4   force =     0.00000000    0.00000000    0.00000000
     atom    7 type  4   force =     0.00000000    0.00000000    0.00000000
     atom    8 type  4   force =     0.00000000    0.00000000    0.00000000
     atom    9 type  4   force =     0.00000000    0.00000000    0.00000000
     atom   10 type  3   force =     0.00000000    0.00000000    0.00000000
     atom   11 type  3   force =     0.00000000    0.00000000    0.00000000
     atom   12 type  3   force =     0.00000000    0.00000000    0.00000000
     atom   13 type  3   force =     0.00000000    0.00000000    0.00000000
     atom   14 type  3   force =     0.00000000    0.00000000    0.00000000
     atom   15 type  3   force =     0.00000000    0.00000000    0.00000000
     atom   16 type  3   force =     0.00000000    0.00000000    0.00000000
     atom   17 type  3   force =     0.00000000    0.00000000    0.00000000
     atom   18 type  3   force =     0.00000000    0.00000000    0.00000000
     atom   19 type  3   force =     0.00000000    0.00000000    0.00000000
     atom   20 type  3   force =     0.00000000    0.00000000    0.00000000
     atom   21 type  3   force =     0.00000000    0.00000000    0.00000000
     atom   22 type  3   force =     0.00000000    0.00000000    0.00000000
     atom   23 type  3   force =     0.00000000    0.00000000    0.00000000
     atom   24 type  3   force =     0.00000000    0.00000000    0.00000000
     atom   25 type  3   force =     0.00000000    0.00000000    0.00000000
     The SCF correction term to forces
     atom    1 type  2   force =     0.00000000    0.00000000    0.00000000
     atom    2 type  1   force =     0.00000664    0.00000144   -0.00000175
     atom    3 type  1   force =     0.00000514   -0.00000138   -0.00000153
     atom    4 type  1   force =    -0.00000662   -0.00000143    0.00000176
     atom    5 type  1   force =    -0.00000512    0.00000138    0.00000154
     atom    6 type  4   force =     0.00000146    0.00000029    0.00000005
     atom    7 type  4   force =     0.00000131   -0.00000047   -0.00000042
     atom    8 type  4   force =    -0.00000146   -0.00000029   -0.00000005
     atom    9 type  4   force =    -0.00000131    0.00000047    0.00000042
     atom   10 type  3   force =     0.00000315    0.00000036    0.00000332
     atom   11 type  3   force =     0.00000153   -0.00000014    0.00000252
     atom   12 type  3   force =    -0.00000315   -0.00000036   -0.00000333
     atom   13 type  3   force =    -0.00000153    0.00000014   -0.00000252
     atom   14 type  3   force =    -0.00000231    0.00000025    0.00000025
     atom   15 type  3   force =     0.00000355   -0.00000015    0.00000070
     atom   16 type  3   force =     0.00000231   -0.00000025   -0.00000025
     atom   17 type  3   force =    -0.00000355    0.00000015   -0.00000070
     atom   18 type  3   force =     0.00000378    0.00000250   -0.00000180
     atom   19 type  3   force =     0.00000127   -0.00000216   -0.00000112
     atom   20 type  3   force =    -0.00000358    0.00000221    0.00000166
     atom   21 type  3   force =    -0.00000141   -0.00000176    0.00000120
     atom   22 type  3   force =    -0.00000378   -0.00000250    0.00000180
     atom   23 type  3   force =    -0.00000127    0.00000216    0.00000112
     atom   24 type  3   force =     0.00000358   -0.00000221   -0.00000166
     atom   25 type  3   force =     0.00000141    0.00000176   -0.00000120

     Total force =     0.311484     Total SCF correction =     0.000020


     Computing stress (Cartesian axis) and pressure


     negative rho (up, down):  0.000E+00 1.052E-03
          total   stress  (Ry/bohr**3)                   (kbar)     P=      161.94
   0.00111553   0.00005142  -0.00003253          164.10        7.56       -4.79
   0.00005142   0.00096299  -0.00002121            7.56      141.66       -3.12
  -0.00003253  -0.00002121   0.00122403           -4.79       -3.12      180.06

     kinetic stress (kbar)  29633.92    -18.53      1.85
                              -18.53  29833.21     -0.04
                                1.85     -0.04  29622.23

     local   stress (kbar)  -3831.71  -3173.43   1021.16
                            -3173.43 -15318.25   1096.50
                             1021.16   1096.50  -7031.36

     nonloc. stress (kbar)  -7598.13     -1.89     -0.48
                               -1.89  -7526.27      2.74
                               -0.48      2.74  -7510.59

     hartree stress (kbar)  13457.94   1267.66   -387.57
                             1267.66  19630.71   -438.73
                             -387.57   -438.73  15610.51

     exc-cor stress (kbar)  -3131.90      1.85     -0.81
                                1.85  -3139.49     -0.44
                               -0.81     -0.44  -3137.80

     corecor stress (kbar)  -3453.30     -0.77      0.67
                               -0.77  -3451.67     -0.05
                                0.67     -0.05  -3454.50

     ewald   stress (kbar) -24912.71   1932.68   -639.61
                             1932.68 -19886.58   -663.10
                             -639.61   -663.10 -23918.44

     hubbard stress (kbar)      0.00      0.00      0.00
                                0.00      0.00      0.00
                                0.00      0.00      0.00

     DFT-D   stress (kbar)      0.00      0.00      0.00
                                0.00      0.00      0.00
                                0.00      0.00      0.00

     XDM     stress (kbar)      0.00      0.00      0.00
                                0.00      0.00      0.00
                                0.00      0.00      0.00

     dft-nl  stress (kbar)      0.00      0.00      0.00
                                0.00      0.00      0.00
                                0.00      0.00      0.00

     TS-vdW  stress (kbar)      0.00      0.00      0.00
                                0.00      0.00      0.00
                                0.00      0.00      0.00



     init_run     :    272.90s CPU    285.94s WALL (       1 calls)
     electrons    :  17431.01s CPU  17969.04s WALL (       1 calls)
     forces       :    166.70s CPU    168.25s WALL (       1 calls)
     stress       :    753.83s CPU    759.08s WALL (       1 calls)

     Called by init_run:
     wfcinit      :    259.90s CPU    271.23s WALL (       1 calls)
     wfcinit:atom :      3.75s CPU      3.80s WALL (     316 calls)
     wfcinit:wfcr :    244.56s CPU    255.66s WALL (     316 calls)
     potinit      :      5.02s CPU      5.52s WALL (       1 calls)
     hinit0       :      5.39s CPU      5.86s WALL (       1 calls)

     Called by electrons:
     c_bands      :  15736.98s CPU  16172.26s WALL (      22 calls)
     sum_band     :   1611.16s CPU   1699.84s WALL (      22 calls)
     v_of_rho     :     22.17s CPU     22.90s WALL (      23 calls)
     v_h          :      0.97s CPU      1.01s WALL (      23 calls)
     v_xc         :     23.04s CPU     23.78s WALL (      25 calls)
     newd         :     39.01s CPU     52.58s WALL (      23 calls)
     PAW_pot      :     18.72s CPU     18.83s WALL (      23 calls)
     mix_rho      :      4.37s CPU      4.54s WALL (      22 calls)

     Called by c_bands:
     init_us_2    :    173.14s CPU    175.78s WALL (   14852 calls)
     cegterg      :  15402.75s CPU  15834.18s WALL (    6952 calls)

     Called by sum_band:
     sum_band:wei :      0.34s CPU      0.34s WALL (      22 calls)
     sum_band:loo :   1483.90s CPU   1557.57s WALL (      22 calls)
     sum_band:buf :     46.64s CPU     47.17s WALL (    6952 calls)
     sum_band:ini :     82.15s CPU     83.22s WALL (    6952 calls)
     sum_band:cal :    738.62s CPU    742.12s WALL (    6952 calls)
     sum_band:bec :      2.88s CPU      2.92s WALL (    6952 calls)
     addusdens    :    122.93s CPU    137.66s WALL (      22 calls)
     addusd:skk   :      0.44s CPU      0.46s WALL (      66 calls)
     addusd:dgemm :     42.59s CPU     54.39s WALL (     132 calls)
     addusd:qvan2 :     78.65s CPU     79.25s WALL (     132 calls)

     Called by *egterg:
     cdiaghg      :    762.91s CPU    774.46s WALL (   35195 calls)
     cegterg:over :   1610.82s CPU   1623.45s WALL (   28243 calls)
     cegterg:upda :   1088.24s CPU   1092.19s WALL (   28243 calls)
     cegterg:last :   2255.98s CPU   2263.70s WALL (   13943 calls)
     h_psi        :   7090.86s CPU   7484.44s WALL (   35511 calls)
     s_psi        :   1950.31s CPU   1957.15s WALL (   35511 calls)
     g_psi        :     22.00s CPU     22.21s WALL (   28243 calls)

     Called by h_psi:
     h_psi:calbec :   2044.33s CPU   2056.22s WALL (   35511 calls)
     vloc_psi     :   2899.62s CPU   3271.99s WALL (   35511 calls)
     add_vuspsi   :   2031.87s CPU   2038.79s WALL (   35511 calls)

     General routines
     calbec       :   2963.10s CPU   2979.40s WALL (   44043 calls)
     fft          :     17.01s CPU     18.12s WALL (     613 calls)
     ffts         :      0.18s CPU      0.44s WALL (      90 calls)
     fftw         :   3265.45s CPU   3681.82s WALL ( 4711392 calls)
     interpolate  :      1.50s CPU      1.83s WALL (      46 calls)

     Parallel routines
     fft_scatt_xy :    296.01s CPU    338.67s WALL ( 4712095 calls)
     fft_scatt_yz :    931.21s CPU   1081.44s WALL ( 4712095 calls)

     PAW routines
     PAW_pot      :     18.72s CPU     18.83s WALL (      23 calls)
     PAW_symme    :      0.06s CPU      0.06s WALL (      45 calls)

     PWSCF        :      5h10m CPU      5h19m WALL


   This run was terminated on:  21:20: 1  23Dec2022            

=------------------------------------------------------------------------------=
   JOB DONE.
=------------------------------------------------------------------------------=
Note: The following floating-point exceptions are signalling: IEEE_UNDERFLOW_FLAG IEEE_DENORMAL
Note: The following floating-point exceptions are signalling: IEEE_DENORMAL
Note: The following floating-point exceptions are signalling: IEEE_DENORMAL
Note: The following floating-point exceptions are signalling: IEEE_DENORMAL
Note: The following floating-point exceptions are signalling: IEEE_DENORMAL
Note: The following floating-point exceptions are signalling: IEEE_DENORMAL
Note: The following floating-point exceptions are signalling: IEEE_INVALID_FLAG IEEE_DENORMAL
Note: The following floating-point exceptions are signalling: IEEE_DENORMAL
Note: The following floating-point exceptions are signalling: IEEE_DENORMAL
