
     Program PWSCF v.6.7MaX starts on 23Dec2022 at 15:22:18 

     This program is part of the open-source Quantum ESPRESSO suite
     for quantum simulation of materials; please cite
         "P. Giannozzi et al., J. Phys.:Condens. Matter 21 395502 (2009);
         "P. Giannozzi et al., J. Phys.:Condens. Matter 29 465901 (2017);
          URL http://www.quantum-espresso.org", 
     in publications or presentations arising from this work. More details at
     http://www.quantum-espresso.org/quote

     Parallel version (MPI), running on    12 processors

     MPI processes distributed on     1 nodes
     R & G space division:  proc/nbgrp/npool/nimage =      12
     Reading input from scale_3d-00.in

     Current dimensions of program PWSCF are:
     Max number of different atomic species (ntypx) = 10
     Max number of k-points (npk) =  40000
     Max angular momentum in pseudopotentials (lmaxx) =  3
     Message from routine read_pp_mesh:
     mesh size missing, using the one in header
     file Fe.pbe-spn-kjpaw_psl.0.2.1.UPF: wavefunction(s)  3D renormalized
     file O.pbe-n-kjpaw_psl.0.1.UPF: wavefunction(s)  2P renormalized

     Subspace diagonalization in iterative solution of the eigenvalue problem:
     a serial algorithm will be used

     Message from routine setup:
     using ibrav=0 with symmetry is DISCOURAGED, use correct ibrav instead

     Parallelization info
     --------------------
     sticks:   dense  smooth     PW     G-vecs:    dense   smooth      PW
     Min        1493     553    149                92509    20863    2948
     Max        1495     555    151                92510    20864    2950
     Sum       17927    6645   1805              1110111   250361   35385



     bravais-lattice index     =            0
     lattice parameter (alat)  =      18.6818  a.u.
     unit-cell volume          =    1852.2367 (a.u.)^3
     number of atoms/cell      =           25
     number of atomic types    =            4
     number of electrons       =       189.00
     number of Kohn-Sham states=          114
     kinetic-energy cutoff     =     100.0000  Ry
     charge density cutoff     =    1080.0000  Ry
     scf convergence threshold =      2.0E-10
     mixing beta               =       0.4000
     number of iterations used =            8  plain     mixing
     Exchange-correlation= PBE
                           (   1   4   3   4   0   0   0)

     celldm(1)=  18.681804  celldm(2)=   0.000000  celldm(3)=   0.000000
     celldm(4)=   0.000000  celldm(5)=   0.000000  celldm(6)=   0.000000

     crystal axes: (cart. coord. in units of alat)
               a(1) = (   1.000000   0.000000   0.000000 )  
               a(2) = (   0.000000   0.597590   0.000000 )  
               a(3) = (   0.000000   0.000000   0.475375 )  

     reciprocal axes: (cart. coord. in units 2 pi/alat)
               b(1) = (  1.000000  0.000000  0.000000 )  
               b(2) = (  0.000000  1.673388  0.000000 )  
               b(3) = (  0.000000  0.000000  2.103600 )  


     PseudoPot. # 1 for Fe read from file:
     /opt/QEpot/SSSP_precision_pseudos/Fe.pbe-spn-kjpaw_psl.0.2.1.UPF
     MD5 check sum: e86618425769142926afa95317d90200
     Pseudo is Projector augmented-wave + core cor, Zval = 16.0
     Generated using "atomic" code by A. Dal Corso  v.5.0.99 svn rev. 10869
     Shape of augmentation charge: PSQ
     Using radial grid of 1191 points,  6 beta functions with: 
                l(1) =   0
                l(2) =   0
                l(3) =   1
                l(4) =   1
                l(5) =   2
                l(6) =   2
     Q(r) pseudized with 0 coefficients 


     PseudoPot. # 2 for Na read from file:
     /opt/QEpot/SSSP_precision_pseudos/Na_ONCV_PBE-1.0.oncvpsp.upf
     MD5 check sum: 24a298df0a6742ae313db96548fdb2a4
     Pseudo is Norm-conserving, Zval =  9.0
     Generated using ONCVPSP code by D. R. Hamann
     Using radial grid of 1992 points,  4 beta functions with: 
                l(1) =   0
                l(2) =   0
                l(3) =   1
                l(4) =   1

     PseudoPot. # 3 for O  read from file:
     /opt/QEpot/SSSP_precision_pseudos/O.pbe-n-kjpaw_psl.0.1.UPF
     MD5 check sum: 0234752ac141de4415c5fc33072bef88
     Pseudo is Projector augmented-wave + core cor, Zval =  6.0
     Generated using "atomic" code by A. Dal Corso  v.5.0.99 svn rev. 10869
     Shape of augmentation charge: BESSEL
     Using radial grid of 1095 points,  4 beta functions with: 
                l(1) =   0
                l(2) =   0
                l(3) =   1
                l(4) =   1
     Q(r) pseudized with 0 coefficients 


     PseudoPot. # 4 for P  read from file:
     /opt/QEpot/SSSP_precision_pseudos/P.pbe-n-rrkjus_psl.1.0.0.UPF
     MD5 check sum: 8b930f418f0a4573dca56cd030ffe088
     Pseudo is Ultrasoft + core correction, Zval =  5.0
     Generated using "atomic" code by A. Dal Corso  v.5.1
     Using radial grid of 1147 points,  6 beta functions with: 
                l(1) =   0
                l(2) =   0
                l(3) =   1
                l(4) =   1
                l(5) =   2
                l(6) =   2
     Q(r) pseudized with 0 coefficients 


     atomic species   valence    mass     pseudopotential
        Fe            16.00    55.84500     Fe( 1.00)
        Na             9.00    22.98977     Na( 1.00)
        O              6.00    15.99940     O ( 1.00)
        P              5.00    30.97376     P ( 1.00)

     Starting magnetic structure 
     atomic species   magnetization
        Fe           0.312
        Na           0.000
        O            0.000
        P            0.000

      2 Sym. Ops., with inversion, found


                                    s                        frac. trans.

      isym =  1     identity                                     

 cryst.   s( 1) = (     1          0          0      )
                  (     0          1          0      )
                  (     0          0          1      )

 cart.    s( 1) = (  1.0000000  0.0000000  0.0000000 )
                  (  0.0000000  1.0000000  0.0000000 )
                  (  0.0000000  0.0000000  1.0000000 )


      isym =  2     inversion                                    

 cryst.   s( 2) = (    -1          0          0      )
                  (     0         -1          0      )
                  (     0          0         -1      )

 cart.    s( 2) = ( -1.0000000  0.0000000  0.0000000 )
                  (  0.0000000 -1.0000000  0.0000000 )
                  (  0.0000000  0.0000000 -1.0000000 )


   Cartesian axes

     site n.     atom                  positions (alat units)
         1           Na  tau(   1) = (   0.5000030   0.2987962   0.2376892  )
         2           Fe  tau(   2) = (   0.2766340   0.4509067   0.4732563  )
         3           Fe  tau(   3) = (   0.2132450   0.1472796   0.2329597  )
         4           Fe  tau(   4) = (   0.7233720   0.1466862   0.0021221  )
         5           Fe  tau(   5) = (   0.7867600   0.4503127   0.2424187  )
         6           P   tau(   6) = (   0.1084050   0.4475052   0.2115882  )
         7           P   tau(   7) = (   0.3919000   0.1469754   0.4493881  )
         8           P   tau(   8) = (   0.8916010   0.1500877   0.2637906  )
         9           P   tau(   9) = (   0.6081070   0.4506175   0.0259883  )
        10           O   tau(  10) = (   0.1318760   0.4471825   0.3577386  )
        11           O   tau(  11) = (   0.3711480   0.1517090   0.1209175  )
        12           O   tau(  12) = (   0.8681290   0.1504104   0.1176393  )
        13           O   tau(  13) = (   0.6288580   0.4458840   0.3544623  )
        14           O   tau(  14) = (   0.4620270   0.4452021   0.0583652  )
        15           O   tau(  15) = (   0.0373160   0.1503453   0.2927600  )
        16           O   tau(  16) = (   0.5379780   0.1523908   0.4170132  )
        17           O   tau(  17) = (   0.9626900   0.4472477   0.1826183  )
        18           O   tau(  18) = (   0.1786770   0.5646908   0.1443392  )
        19           O   tau(  19) = (   0.3223210   0.0298072   0.3843658  )
        20           O   tau(  20) = (   0.8194080   0.2651781   0.3318539  )
        21           O   tau(  21) = (   0.6766380   0.3344526   0.0973065  )
        22           O   tau(  22) = (   0.8213290   0.0329027   0.3310391  )
        23           O   tau(  23) = (   0.6776850   0.5677863   0.0910125  )
        24           O   tau(  24) = (   0.1805980   0.3324148   0.1435244  )
        25           O   tau(  25) = (   0.3233680   0.2631404   0.3780723  )

   Crystallographic axes

     site n.     atom                  positions (cryst. coord.)
         1           Na  tau(   1) = (  0.5000030  0.5000020  0.5000030  )
         2           Fe  tau(   2) = (  0.2766340  0.7545420  0.9955420  )
         3           Fe  tau(   3) = (  0.2132450  0.2464560  0.4900540  )
         4           Fe  tau(   4) = (  0.7233720  0.2454630  0.0044640  )
         5           Fe  tau(   5) = (  0.7867600  0.7535480  0.5099520  )
         6           P   tau(   6) = (  0.1084050  0.7488500  0.4450970  )
         7           P   tau(   7) = (  0.3919000  0.2459470  0.9453330  )
         8           P   tau(   8) = (  0.8916010  0.2511550  0.5549100  )
         9           P   tau(   9) = (  0.6081070  0.7540580  0.0546690  )
        10           O   tau(  10) = (  0.1318760  0.7483100  0.7525390  )
        11           O   tau(  11) = (  0.3711480  0.2538680  0.2543620  )
        12           O   tau(  12) = (  0.8681290  0.2516950  0.2474660  )
        13           O   tau(  13) = (  0.6288580  0.7461370  0.7456470  )
        14           O   tau(  14) = (  0.4620270  0.7449960  0.1227770  )
        15           O   tau(  15) = (  0.0373160  0.2515860  0.6158500  )
        16           O   tau(  16) = (  0.5379780  0.2550090  0.8772290  )
        17           O   tau(  17) = (  0.9626900  0.7484190  0.3841560  )
        18           O   tau(  18) = (  0.1786770  0.9449470  0.3036320  )
        19           O   tau(  19) = (  0.3223210  0.0498790  0.8085520  )
        20           O   tau(  20) = (  0.8194080  0.4437460  0.6980880  )
        21           O   tau(  21) = (  0.6766380  0.5596690  0.2046940  )
        22           O   tau(  22) = (  0.8213290  0.0550590  0.6963740  )
        23           O   tau(  23) = (  0.6776850  0.9501270  0.1914540  )
        24           O   tau(  24) = (  0.1805980  0.5562590  0.3019180  )
        25           O   tau(  25) = (  0.3233680  0.4403360  0.7953130  )

     number of k points=   158  Marzari-Vanderbilt smearing, width (Ry)=  0.0073
                       cart. coord. in units 2pi/alat
        k(    1) = (   0.0000000   0.0000000   0.0000000), wk =   0.0031746
        k(    2) = (   0.0000000   0.0000000   0.2337334), wk =   0.0063492
        k(    3) = (   0.0000000   0.0000000   0.4674667), wk =   0.0063492
        k(    4) = (   0.0000000   0.0000000   0.7012001), wk =   0.0063492
        k(    5) = (   0.0000000   0.0000000   0.9349334), wk =   0.0063492
        k(    6) = (   0.0000000   0.2390555   0.0000000), wk =   0.0063492
        k(    7) = (   0.0000000   0.2390555   0.2337334), wk =   0.0063492
        k(    8) = (   0.0000000   0.2390555   0.4674667), wk =   0.0063492
        k(    9) = (   0.0000000   0.2390555   0.7012001), wk =   0.0063492
        k(   10) = (   0.0000000   0.2390555   0.9349334), wk =   0.0063492
        k(   11) = (   0.0000000   0.4781110   0.0000000), wk =   0.0063492
        k(   12) = (   0.0000000   0.4781110   0.2337334), wk =   0.0063492
        k(   13) = (   0.0000000   0.4781110   0.4674667), wk =   0.0063492
        k(   14) = (   0.0000000   0.4781110   0.7012001), wk =   0.0063492
        k(   15) = (   0.0000000   0.4781110   0.9349334), wk =   0.0063492
        k(   16) = (   0.0000000   0.7171664   0.0000000), wk =   0.0063492
        k(   17) = (   0.0000000   0.7171664   0.2337334), wk =   0.0063492
        k(   18) = (   0.0000000   0.7171664   0.4674667), wk =   0.0063492
        k(   19) = (   0.0000000   0.7171664   0.7012001), wk =   0.0063492
        k(   20) = (   0.0000000   0.7171664   0.9349334), wk =   0.0063492
        k(   21) = (   0.2000000   0.0000000   0.0000000), wk =   0.0063492
        k(   22) = (   0.2000000   0.0000000   0.2337334), wk =   0.0063492
        k(   23) = (   0.2000000   0.0000000   0.4674667), wk =   0.0063492
        k(   24) = (   0.2000000   0.0000000   0.7012001), wk =   0.0063492
        k(   25) = (   0.2000000   0.0000000   0.9349334), wk =   0.0063492
        k(   26) = (   0.2000000   0.2390555   0.0000000), wk =   0.0063492
        k(   27) = (   0.2000000   0.2390555   0.2337334), wk =   0.0063492
        k(   28) = (   0.2000000   0.2390555   0.4674667), wk =   0.0063492
        k(   29) = (   0.2000000   0.2390555   0.7012001), wk =   0.0063492
        k(   30) = (   0.2000000   0.2390555   0.9349334), wk =   0.0063492
        k(   31) = (   0.2000000   0.4781110   0.0000000), wk =   0.0063492
        k(   32) = (   0.2000000   0.4781110   0.2337334), wk =   0.0063492
        k(   33) = (   0.2000000   0.4781110   0.4674667), wk =   0.0063492
        k(   34) = (   0.2000000   0.4781110   0.7012001), wk =   0.0063492
        k(   35) = (   0.2000000   0.4781110   0.9349334), wk =   0.0063492
        k(   36) = (   0.2000000   0.7171664   0.0000000), wk =   0.0063492
        k(   37) = (   0.2000000   0.7171664   0.2337334), wk =   0.0063492
        k(   38) = (   0.2000000   0.7171664   0.4674667), wk =   0.0063492
        k(   39) = (   0.2000000   0.7171664   0.7012001), wk =   0.0063492
        k(   40) = (   0.2000000   0.7171664   0.9349334), wk =   0.0063492
        k(   41) = (   0.4000000   0.0000000   0.0000000), wk =   0.0063492
        k(   42) = (   0.4000000   0.0000000   0.2337334), wk =   0.0063492
        k(   43) = (   0.4000000   0.0000000   0.4674667), wk =   0.0063492
        k(   44) = (   0.4000000   0.0000000   0.7012001), wk =   0.0063492
        k(   45) = (   0.4000000   0.0000000   0.9349334), wk =   0.0063492
        k(   46) = (   0.4000000   0.2390555   0.0000000), wk =   0.0063492
        k(   47) = (   0.4000000   0.2390555   0.2337334), wk =   0.0063492
        k(   48) = (   0.4000000   0.2390555   0.4674667), wk =   0.0063492
        k(   49) = (   0.4000000   0.2390555   0.7012001), wk =   0.0063492
        k(   50) = (   0.4000000   0.2390555   0.9349334), wk =   0.0063492
        k(   51) = (   0.4000000   0.4781110   0.0000000), wk =   0.0063492
        k(   52) = (   0.4000000   0.4781110   0.2337334), wk =   0.0063492
        k(   53) = (   0.4000000   0.4781110   0.4674667), wk =   0.0063492
        k(   54) = (   0.4000000   0.4781110   0.7012001), wk =   0.0063492
        k(   55) = (   0.4000000   0.4781110   0.9349334), wk =   0.0063492
        k(   56) = (   0.4000000   0.7171664   0.0000000), wk =   0.0063492
        k(   57) = (   0.4000000   0.7171664   0.2337334), wk =   0.0063492
        k(   58) = (   0.4000000   0.7171664   0.4674667), wk =   0.0063492
        k(   59) = (   0.4000000   0.7171664   0.7012001), wk =   0.0063492
        k(   60) = (   0.4000000   0.7171664   0.9349334), wk =   0.0063492
        k(   61) = (   0.0000000   0.2390555  -0.2337334), wk =   0.0063492
        k(   62) = (   0.0000000   0.2390555  -0.4674667), wk =   0.0063492
        k(   63) = (   0.0000000   0.2390555  -0.7012001), wk =   0.0063492
        k(   64) = (   0.0000000   0.2390555  -0.9349334), wk =   0.0063492
        k(   65) = (   0.0000000   0.4781110  -0.2337334), wk =   0.0063492
        k(   66) = (   0.0000000   0.4781110  -0.4674667), wk =   0.0063492
        k(   67) = (   0.0000000   0.4781110  -0.7012001), wk =   0.0063492
        k(   68) = (   0.0000000   0.4781110  -0.9349334), wk =   0.0063492
        k(   69) = (   0.0000000   0.7171664  -0.2337334), wk =   0.0063492
        k(   70) = (   0.0000000   0.7171664  -0.4674667), wk =   0.0063492
        k(   71) = (   0.0000000   0.7171664  -0.7012001), wk =   0.0063492
        k(   72) = (   0.0000000   0.7171664  -0.9349334), wk =   0.0063492
        k(   73) = (   0.2000000   0.0000000  -0.2337334), wk =   0.0063492
        k(   74) = (   0.2000000   0.0000000  -0.4674667), wk =   0.0063492
        k(   75) = (   0.2000000   0.0000000  -0.7012001), wk =   0.0063492
        k(   76) = (   0.2000000   0.0000000  -0.9349334), wk =   0.0063492
        k(   77) = (  -0.2000000   0.2390555   0.0000000), wk =   0.0063492
        k(   78) = (  -0.2000000   0.2390555  -0.2337334), wk =   0.0063492
        k(   79) = (   0.2000000  -0.2390555  -0.2337334), wk =   0.0063492
        k(   80) = (  -0.2000000  -0.2390555   0.2337334), wk =   0.0063492
        k(   81) = (  -0.2000000   0.2390555  -0.4674667), wk =   0.0063492
        k(   82) = (   0.2000000  -0.2390555  -0.4674667), wk =   0.0063492
        k(   83) = (  -0.2000000  -0.2390555   0.4674667), wk =   0.0063492
        k(   84) = (  -0.2000000   0.2390555  -0.7012001), wk =   0.0063492
        k(   85) = (   0.2000000  -0.2390555  -0.7012001), wk =   0.0063492
        k(   86) = (  -0.2000000  -0.2390555   0.7012001), wk =   0.0063492
        k(   87) = (  -0.2000000   0.2390555  -0.9349334), wk =   0.0063492
        k(   88) = (   0.2000000  -0.2390555  -0.9349334), wk =   0.0063492
        k(   89) = (  -0.2000000  -0.2390555   0.9349334), wk =   0.0063492
        k(   90) = (  -0.2000000   0.4781110   0.0000000), wk =   0.0063492
        k(   91) = (  -0.2000000   0.4781110  -0.2337334), wk =   0.0063492
        k(   92) = (   0.2000000  -0.4781110  -0.2337334), wk =   0.0063492
        k(   93) = (  -0.2000000  -0.4781110   0.2337334), wk =   0.0063492
        k(   94) = (  -0.2000000   0.4781110  -0.4674667), wk =   0.0063492
        k(   95) = (   0.2000000  -0.4781110  -0.4674667), wk =   0.0063492
        k(   96) = (  -0.2000000  -0.4781110   0.4674667), wk =   0.0063492
        k(   97) = (  -0.2000000   0.4781110  -0.7012001), wk =   0.0063492
        k(   98) = (   0.2000000  -0.4781110  -0.7012001), wk =   0.0063492
        k(   99) = (  -0.2000000  -0.4781110   0.7012001), wk =   0.0063492
        k(  100) = (  -0.2000000   0.4781110  -0.9349334), wk =   0.0063492
        k(  101) = (   0.2000000  -0.4781110  -0.9349334), wk =   0.0063492
        k(  102) = (  -0.2000000  -0.4781110   0.9349334), wk =   0.0063492
        k(  103) = (  -0.2000000   0.7171664   0.0000000), wk =   0.0063492
        k(  104) = (  -0.2000000   0.7171664  -0.2337334), wk =   0.0063492
        k(  105) = (   0.2000000  -0.7171664  -0.2337334), wk =   0.0063492
        k(  106) = (  -0.2000000  -0.7171664   0.2337334), wk =   0.0063492
        k(  107) = (  -0.2000000   0.7171664  -0.4674667), wk =   0.0063492
        k(  108) = (   0.2000000  -0.7171664  -0.4674667), wk =   0.0063492
        k(  109) = (  -0.2000000  -0.7171664   0.4674667), wk =   0.0063492
        k(  110) = (  -0.2000000   0.7171664  -0.7012001), wk =   0.0063492
        k(  111) = (   0.2000000  -0.7171664  -0.7012001), wk =   0.0063492
        k(  112) = (  -0.2000000  -0.7171664   0.7012001), wk =   0.0063492
        k(  113) = (  -0.2000000   0.7171664  -0.9349334), wk =   0.0063492
        k(  114) = (   0.2000000  -0.7171664  -0.9349334), wk =   0.0063492
        k(  115) = (  -0.2000000  -0.7171664   0.9349334), wk =   0.0063492
        k(  116) = (   0.4000000   0.0000000  -0.2337334), wk =   0.0063492
        k(  117) = (   0.4000000   0.0000000  -0.4674667), wk =   0.0063492
        k(  118) = (   0.4000000   0.0000000  -0.7012001), wk =   0.0063492
        k(  119) = (   0.4000000   0.0000000  -0.9349334), wk =   0.0063492
        k(  120) = (  -0.4000000   0.2390555   0.0000000), wk =   0.0063492
        k(  121) = (  -0.4000000   0.2390555  -0.2337334), wk =   0.0063492
        k(  122) = (   0.4000000  -0.2390555  -0.2337334), wk =   0.0063492
        k(  123) = (  -0.4000000  -0.2390555   0.2337334), wk =   0.0063492
        k(  124) = (  -0.4000000   0.2390555  -0.4674667), wk =   0.0063492
        k(  125) = (   0.4000000  -0.2390555  -0.4674667), wk =   0.0063492
        k(  126) = (  -0.4000000  -0.2390555   0.4674667), wk =   0.0063492
        k(  127) = (  -0.4000000   0.2390555  -0.7012001), wk =   0.0063492
        k(  128) = (   0.4000000  -0.2390555  -0.7012001), wk =   0.0063492
        k(  129) = (  -0.4000000  -0.2390555   0.7012001), wk =   0.0063492
        k(  130) = (  -0.4000000   0.2390555  -0.9349334), wk =   0.0063492
        k(  131) = (   0.4000000  -0.2390555  -0.9349334), wk =   0.0063492
        k(  132) = (  -0.4000000  -0.2390555   0.9349334), wk =   0.0063492
        k(  133) = (  -0.4000000   0.4781110   0.0000000), wk =   0.0063492
        k(  134) = (  -0.4000000   0.4781110  -0.2337334), wk =   0.0063492
        k(  135) = (   0.4000000  -0.4781110  -0.2337334), wk =   0.0063492
        k(  136) = (  -0.4000000  -0.4781110   0.2337334), wk =   0.0063492
        k(  137) = (  -0.4000000   0.4781110  -0.4674667), wk =   0.0063492
        k(  138) = (   0.4000000  -0.4781110  -0.4674667), wk =   0.0063492
        k(  139) = (  -0.4000000  -0.4781110   0.4674667), wk =   0.0063492
        k(  140) = (  -0.4000000   0.4781110  -0.7012001), wk =   0.0063492
        k(  141) = (   0.4000000  -0.4781110  -0.7012001), wk =   0.0063492
        k(  142) = (  -0.4000000  -0.4781110   0.7012001), wk =   0.0063492
        k(  143) = (  -0.4000000   0.4781110  -0.9349334), wk =   0.0063492
        k(  144) = (   0.4000000  -0.4781110  -0.9349334), wk =   0.0063492
        k(  145) = (  -0.4000000  -0.4781110   0.9349334), wk =   0.0063492
        k(  146) = (  -0.4000000   0.7171664   0.0000000), wk =   0.0063492
        k(  147) = (  -0.4000000   0.7171664  -0.2337334), wk =   0.0063492
        k(  148) = (   0.4000000  -0.7171664  -0.2337334), wk =   0.0063492
        k(  149) = (  -0.4000000  -0.7171664   0.2337334), wk =   0.0063492
        k(  150) = (  -0.4000000   0.7171664  -0.4674667), wk =   0.0063492
        k(  151) = (   0.4000000  -0.7171664  -0.4674667), wk =   0.0063492
        k(  152) = (  -0.4000000  -0.7171664   0.4674667), wk =   0.0063492
        k(  153) = (  -0.4000000   0.7171664  -0.7012001), wk =   0.0063492
        k(  154) = (   0.4000000  -0.7171664  -0.7012001), wk =   0.0063492
        k(  155) = (  -0.4000000  -0.7171664   0.7012001), wk =   0.0063492
        k(  156) = (  -0.4000000   0.7171664  -0.9349334), wk =   0.0063492
        k(  157) = (   0.4000000  -0.7171664  -0.9349334), wk =   0.0063492
        k(  158) = (  -0.4000000  -0.7171664   0.9349334), wk =   0.0063492

                       cryst. coord.
        k(    1) = (   0.0000000   0.0000000   0.0000000), wk =   0.0031746
        k(    2) = (   0.0000000   0.0000000   0.1111111), wk =   0.0063492
        k(    3) = (   0.0000000   0.0000000   0.2222222), wk =   0.0063492
        k(    4) = (   0.0000000   0.0000000   0.3333333), wk =   0.0063492
        k(    5) = (   0.0000000   0.0000000   0.4444444), wk =   0.0063492
        k(    6) = (   0.0000000   0.1428571   0.0000000), wk =   0.0063492
        k(    7) = (   0.0000000   0.1428571   0.1111111), wk =   0.0063492
        k(    8) = (   0.0000000   0.1428571   0.2222222), wk =   0.0063492
        k(    9) = (   0.0000000   0.1428571   0.3333333), wk =   0.0063492
        k(   10) = (   0.0000000   0.1428571   0.4444444), wk =   0.0063492
        k(   11) = (   0.0000000   0.2857143   0.0000000), wk =   0.0063492
        k(   12) = (   0.0000000   0.2857143   0.1111111), wk =   0.0063492
        k(   13) = (   0.0000000   0.2857143   0.2222222), wk =   0.0063492
        k(   14) = (   0.0000000   0.2857143   0.3333333), wk =   0.0063492
        k(   15) = (   0.0000000   0.2857143   0.4444444), wk =   0.0063492
        k(   16) = (   0.0000000   0.4285714   0.0000000), wk =   0.0063492
        k(   17) = (   0.0000000   0.4285714   0.1111111), wk =   0.0063492
        k(   18) = (   0.0000000   0.4285714   0.2222222), wk =   0.0063492
        k(   19) = (   0.0000000   0.4285714   0.3333333), wk =   0.0063492
        k(   20) = (   0.0000000   0.4285714   0.4444444), wk =   0.0063492
        k(   21) = (   0.2000000   0.0000000   0.0000000), wk =   0.0063492
        k(   22) = (   0.2000000   0.0000000   0.1111111), wk =   0.0063492
        k(   23) = (   0.2000000   0.0000000   0.2222222), wk =   0.0063492
        k(   24) = (   0.2000000   0.0000000   0.3333333), wk =   0.0063492
        k(   25) = (   0.2000000   0.0000000   0.4444444), wk =   0.0063492
        k(   26) = (   0.2000000   0.1428571   0.0000000), wk =   0.0063492
        k(   27) = (   0.2000000   0.1428571   0.1111111), wk =   0.0063492
        k(   28) = (   0.2000000   0.1428571   0.2222222), wk =   0.0063492
        k(   29) = (   0.2000000   0.1428571   0.3333333), wk =   0.0063492
        k(   30) = (   0.2000000   0.1428571   0.4444444), wk =   0.0063492
        k(   31) = (   0.2000000   0.2857143   0.0000000), wk =   0.0063492
        k(   32) = (   0.2000000   0.2857143   0.1111111), wk =   0.0063492
        k(   33) = (   0.2000000   0.2857143   0.2222222), wk =   0.0063492
        k(   34) = (   0.2000000   0.2857143   0.3333333), wk =   0.0063492
        k(   35) = (   0.2000000   0.2857143   0.4444444), wk =   0.0063492
        k(   36) = (   0.2000000   0.4285714   0.0000000), wk =   0.0063492
        k(   37) = (   0.2000000   0.4285714   0.1111111), wk =   0.0063492
        k(   38) = (   0.2000000   0.4285714   0.2222222), wk =   0.0063492
        k(   39) = (   0.2000000   0.4285714   0.3333333), wk =   0.0063492
        k(   40) = (   0.2000000   0.4285714   0.4444444), wk =   0.0063492
        k(   41) = (   0.4000000   0.0000000   0.0000000), wk =   0.0063492
        k(   42) = (   0.4000000   0.0000000   0.1111111), wk =   0.0063492
        k(   43) = (   0.4000000   0.0000000   0.2222222), wk =   0.0063492
        k(   44) = (   0.4000000   0.0000000   0.3333333), wk =   0.0063492
        k(   45) = (   0.4000000   0.0000000   0.4444444), wk =   0.0063492
        k(   46) = (   0.4000000   0.1428571   0.0000000), wk =   0.0063492
        k(   47) = (   0.4000000   0.1428571   0.1111111), wk =   0.0063492
        k(   48) = (   0.4000000   0.1428571   0.2222222), wk =   0.0063492
        k(   49) = (   0.4000000   0.1428571   0.3333333), wk =   0.0063492
        k(   50) = (   0.4000000   0.1428571   0.4444444), wk =   0.0063492
        k(   51) = (   0.4000000   0.2857143   0.0000000), wk =   0.0063492
        k(   52) = (   0.4000000   0.2857143   0.1111111), wk =   0.0063492
        k(   53) = (   0.4000000   0.2857143   0.2222222), wk =   0.0063492
        k(   54) = (   0.4000000   0.2857143   0.3333333), wk =   0.0063492
        k(   55) = (   0.4000000   0.2857143   0.4444444), wk =   0.0063492
        k(   56) = (   0.4000000   0.4285714   0.0000000), wk =   0.0063492
        k(   57) = (   0.4000000   0.4285714   0.1111111), wk =   0.0063492
        k(   58) = (   0.4000000   0.4285714   0.2222222), wk =   0.0063492
        k(   59) = (   0.4000000   0.4285714   0.3333333), wk =   0.0063492
        k(   60) = (   0.4000000   0.4285714   0.4444444), wk =   0.0063492
        k(   61) = (   0.0000000   0.1428571  -0.1111111), wk =   0.0063492
        k(   62) = (   0.0000000   0.1428571  -0.2222222), wk =   0.0063492
        k(   63) = (   0.0000000   0.1428571  -0.3333333), wk =   0.0063492
        k(   64) = (   0.0000000   0.1428571  -0.4444444), wk =   0.0063492
        k(   65) = (   0.0000000   0.2857143  -0.1111111), wk =   0.0063492
        k(   66) = (   0.0000000   0.2857143  -0.2222222), wk =   0.0063492
        k(   67) = (   0.0000000   0.2857143  -0.3333333), wk =   0.0063492
        k(   68) = (   0.0000000   0.2857143  -0.4444444), wk =   0.0063492
        k(   69) = (   0.0000000   0.4285714  -0.1111111), wk =   0.0063492
        k(   70) = (   0.0000000   0.4285714  -0.2222222), wk =   0.0063492
        k(   71) = (   0.0000000   0.4285714  -0.3333333), wk =   0.0063492
        k(   72) = (   0.0000000   0.4285714  -0.4444444), wk =   0.0063492
        k(   73) = (   0.2000000   0.0000000  -0.1111111), wk =   0.0063492
        k(   74) = (   0.2000000   0.0000000  -0.2222222), wk =   0.0063492
        k(   75) = (   0.2000000   0.0000000  -0.3333333), wk =   0.0063492
        k(   76) = (   0.2000000   0.0000000  -0.4444444), wk =   0.0063492
        k(   77) = (  -0.2000000   0.1428571   0.0000000), wk =   0.0063492
        k(   78) = (  -0.2000000   0.1428571  -0.1111111), wk =   0.0063492
        k(   79) = (   0.2000000  -0.1428571  -0.1111111), wk =   0.0063492
        k(   80) = (  -0.2000000  -0.1428571   0.1111111), wk =   0.0063492
        k(   81) = (  -0.2000000   0.1428571  -0.2222222), wk =   0.0063492
        k(   82) = (   0.2000000  -0.1428571  -0.2222222), wk =   0.0063492
        k(   83) = (  -0.2000000  -0.1428571   0.2222222), wk =   0.0063492
        k(   84) = (  -0.2000000   0.1428571  -0.3333333), wk =   0.0063492
        k(   85) = (   0.2000000  -0.1428571  -0.3333333), wk =   0.0063492
        k(   86) = (  -0.2000000  -0.1428571   0.3333333), wk =   0.0063492
        k(   87) = (  -0.2000000   0.1428571  -0.4444444), wk =   0.0063492
        k(   88) = (   0.2000000  -0.1428571  -0.4444444), wk =   0.0063492
        k(   89) = (  -0.2000000  -0.1428571   0.4444444), wk =   0.0063492
        k(   90) = (  -0.2000000   0.2857143   0.0000000), wk =   0.0063492
        k(   91) = (  -0.2000000   0.2857143  -0.1111111), wk =   0.0063492
        k(   92) = (   0.2000000  -0.2857143  -0.1111111), wk =   0.0063492
        k(   93) = (  -0.2000000  -0.2857143   0.1111111), wk =   0.0063492
        k(   94) = (  -0.2000000   0.2857143  -0.2222222), wk =   0.0063492
        k(   95) = (   0.2000000  -0.2857143  -0.2222222), wk =   0.0063492
        k(   96) = (  -0.2000000  -0.2857143   0.2222222), wk =   0.0063492
        k(   97) = (  -0.2000000   0.2857143  -0.3333333), wk =   0.0063492
        k(   98) = (   0.2000000  -0.2857143  -0.3333333), wk =   0.0063492
        k(   99) = (  -0.2000000  -0.2857143   0.3333333), wk =   0.0063492
        k(  100) = (  -0.2000000   0.2857143  -0.4444444), wk =   0.0063492
        k(  101) = (   0.2000000  -0.2857143  -0.4444444), wk =   0.0063492
        k(  102) = (  -0.2000000  -0.2857143   0.4444444), wk =   0.0063492
        k(  103) = (  -0.2000000   0.4285714   0.0000000), wk =   0.0063492
        k(  104) = (  -0.2000000   0.4285714  -0.1111111), wk =   0.0063492
        k(  105) = (   0.2000000  -0.4285714  -0.1111111), wk =   0.0063492
        k(  106) = (  -0.2000000  -0.4285714   0.1111111), wk =   0.0063492
        k(  107) = (  -0.2000000   0.4285714  -0.2222222), wk =   0.0063492
        k(  108) = (   0.2000000  -0.4285714  -0.2222222), wk =   0.0063492
        k(  109) = (  -0.2000000  -0.4285714   0.2222222), wk =   0.0063492
        k(  110) = (  -0.2000000   0.4285714  -0.3333333), wk =   0.0063492
        k(  111) = (   0.2000000  -0.4285714  -0.3333333), wk =   0.0063492
        k(  112) = (  -0.2000000  -0.4285714   0.3333333), wk =   0.0063492
        k(  113) = (  -0.2000000   0.4285714  -0.4444444), wk =   0.0063492
        k(  114) = (   0.2000000  -0.4285714  -0.4444444), wk =   0.0063492
        k(  115) = (  -0.2000000  -0.4285714   0.4444444), wk =   0.0063492
        k(  116) = (   0.4000000   0.0000000  -0.1111111), wk =   0.0063492
        k(  117) = (   0.4000000   0.0000000  -0.2222222), wk =   0.0063492
        k(  118) = (   0.4000000   0.0000000  -0.3333333), wk =   0.0063492
        k(  119) = (   0.4000000   0.0000000  -0.4444444), wk =   0.0063492
        k(  120) = (  -0.4000000   0.1428571   0.0000000), wk =   0.0063492
        k(  121) = (  -0.4000000   0.1428571  -0.1111111), wk =   0.0063492
        k(  122) = (   0.4000000  -0.1428571  -0.1111111), wk =   0.0063492
        k(  123) = (  -0.4000000  -0.1428571   0.1111111), wk =   0.0063492
        k(  124) = (  -0.4000000   0.1428571  -0.2222222), wk =   0.0063492
        k(  125) = (   0.4000000  -0.1428571  -0.2222222), wk =   0.0063492
        k(  126) = (  -0.4000000  -0.1428571   0.2222222), wk =   0.0063492
        k(  127) = (  -0.4000000   0.1428571  -0.3333333), wk =   0.0063492
        k(  128) = (   0.4000000  -0.1428571  -0.3333333), wk =   0.0063492
        k(  129) = (  -0.4000000  -0.1428571   0.3333333), wk =   0.0063492
        k(  130) = (  -0.4000000   0.1428571  -0.4444444), wk =   0.0063492
        k(  131) = (   0.4000000  -0.1428571  -0.4444444), wk =   0.0063492
        k(  132) = (  -0.4000000  -0.1428571   0.4444444), wk =   0.0063492
        k(  133) = (  -0.4000000   0.2857143   0.0000000), wk =   0.0063492
        k(  134) = (  -0.4000000   0.2857143  -0.1111111), wk =   0.0063492
        k(  135) = (   0.4000000  -0.2857143  -0.1111111), wk =   0.0063492
        k(  136) = (  -0.4000000  -0.2857143   0.1111111), wk =   0.0063492
        k(  137) = (  -0.4000000   0.2857143  -0.2222222), wk =   0.0063492
        k(  138) = (   0.4000000  -0.2857143  -0.2222222), wk =   0.0063492
        k(  139) = (  -0.4000000  -0.2857143   0.2222222), wk =   0.0063492
        k(  140) = (  -0.4000000   0.2857143  -0.3333333), wk =   0.0063492
        k(  141) = (   0.4000000  -0.2857143  -0.3333333), wk =   0.0063492
        k(  142) = (  -0.4000000  -0.2857143   0.3333333), wk =   0.0063492
        k(  143) = (  -0.4000000   0.2857143  -0.4444444), wk =   0.0063492
        k(  144) = (   0.4000000  -0.2857143  -0.4444444), wk =   0.0063492
        k(  145) = (  -0.4000000  -0.2857143   0.4444444), wk =   0.0063492
        k(  146) = (  -0.4000000   0.4285714   0.0000000), wk =   0.0063492
        k(  147) = (  -0.4000000   0.4285714  -0.1111111), wk =   0.0063492
        k(  148) = (   0.4000000  -0.4285714  -0.1111111), wk =   0.0063492
        k(  149) = (  -0.4000000  -0.4285714   0.1111111), wk =   0.0063492
        k(  150) = (  -0.4000000   0.4285714  -0.2222222), wk =   0.0063492
        k(  151) = (   0.4000000  -0.4285714  -0.2222222), wk =   0.0063492
        k(  152) = (  -0.4000000  -0.4285714   0.2222222), wk =   0.0063492
        k(  153) = (  -0.4000000   0.4285714  -0.3333333), wk =   0.0063492
        k(  154) = (   0.4000000  -0.4285714  -0.3333333), wk =   0.0063492
        k(  155) = (  -0.4000000  -0.4285714   0.3333333), wk =   0.0063492
        k(  156) = (  -0.4000000   0.4285714  -0.4444444), wk =   0.0063492
        k(  157) = (   0.4000000  -0.4285714  -0.4444444), wk =   0.0063492
        k(  158) = (  -0.4000000  -0.4285714   0.4444444), wk =   0.0063492

     Dense  grid:  1110111 G-vectors     FFT dimensions: ( 200, 120,  96)

     Smooth grid:   250361 G-vectors     FFT dimensions: ( 120,  72,  60)

     Dynamical RAM for                 wfc:       4.53 MB

     Dynamical RAM for     wfc (w. buffer):    1437.01 MB

     Dynamical RAM for           str. fact:       5.65 MB

     Dynamical RAM for           local pot:       0.00 MB

     Dynamical RAM for          nlocal pot:      11.13 MB

     Dynamical RAM for                qrad:      10.54 MB

     Dynamical RAM for          rho,v,vnew:      17.26 MB

     Dynamical RAM for               rhoin:       5.75 MB

     Dynamical RAM for            rho*nmix:      45.17 MB

     Dynamical RAM for           G-vectors:       5.45 MB

     Dynamical RAM for          h,s,v(r/c):       2.38 MB

     Dynamical RAM for          <psi|beta>:       0.49 MB

     Dynamical RAM for                 psi:       9.07 MB

     Dynamical RAM for                hpsi:       9.07 MB

     Dynamical RAM for                spsi:       9.07 MB

     Dynamical RAM for      wfcinit/wfcrot:      11.33 MB

     Dynamical RAM for           addusdens:     286.55 MB

     Dynamical RAM for          addusforce:     329.02 MB

     Dynamical RAM for         addusstress:     285.84 MB

     Estimated static dynamical RAM per process >       1.52 GB

     Estimated max dynamical RAM per process >       1.84 GB

     Estimated total dynamical RAM >      22.06 GB

     Check: negative core charge=   -0.000003
     Generating pointlists ...
     new r_m :   0.0764 (alat units)  1.4275 (a.u.) for type    1
     new r_m :   0.0940 (alat units)  1.7552 (a.u.) for type    2
     new r_m :   0.0611 (alat units)  1.1407 (a.u.) for type    3
     new r_m :   0.0611 (alat units)  1.1407 (a.u.) for type    4

     Initial potential from superposition of free atoms

     starting charge  188.99132, renormalised to  189.00000
     Starting wfcs are  137 randomized atomic wfcs
     Checking if some PAW data can be deallocated... 
       PAW data deallocated on   10 nodes for type:  1
       PAW data deallocated on    4 nodes for type:  3

     total cpu time spent up to now is      303.0 secs

     Self-consistent Calculation

     iteration #  1     ecut=   100.00 Ry     beta= 0.40
     Davidson diagonalization with overlap
     ethr =  1.00E-02,  avg # of iterations =  4.1

     negative rho (up, down):  0.000E+00 2.119E-05

     total cpu time spent up to now is     1369.8 secs

     total energy              =   -2124.01837755 Ry
     estimated scf accuracy    <       6.53382962 Ry

     total magnetization       =    19.00 Bohr mag/cell
     absolute magnetization    =    19.00 Bohr mag/cell

     iteration #  2     ecut=   100.00 Ry     beta= 0.40
     Davidson diagonalization with overlap
     ethr =  3.46E-03,  avg # of iterations =  2.0

     negative rho (up, down):  0.000E+00 5.905E-06

     total cpu time spent up to now is     2236.0 secs

     total energy              =   -2124.55923359 Ry
     estimated scf accuracy    <       4.85590694 Ry

     total magnetization       =    15.52 Bohr mag/cell
     absolute magnetization    =    15.52 Bohr mag/cell

     iteration #  3     ecut=   100.00 Ry     beta= 0.40
     Davidson diagonalization with overlap
     ethr =  2.57E-03,  avg # of iterations =  2.0

     negative rho (up, down):  0.000E+00 3.627E-05

     total cpu time spent up to now is     2974.2 secs

     total energy              =   -2125.29792312 Ry
     estimated scf accuracy    <       5.64072566 Ry

     total magnetization       =    15.02 Bohr mag/cell
     absolute magnetization    =    15.14 Bohr mag/cell

     iteration #  4     ecut=   100.00 Ry     beta= 0.40
     Davidson diagonalization with overlap
     ethr =  2.57E-03,  avg # of iterations =  1.5

     negative rho (up, down):  0.000E+00 1.002E-04

     total cpu time spent up to now is     3657.8 secs

     total energy              =   -2125.62760834 Ry
     estimated scf accuracy    <       3.98111111 Ry

     total magnetization       =    15.63 Bohr mag/cell
     absolute magnetization    =    15.70 Bohr mag/cell

     iteration #  5     ecut=   100.00 Ry     beta= 0.40
     Davidson diagonalization with overlap
     ethr =  2.11E-03,  avg # of iterations =  1.1

     negative rho (up, down):  0.000E+00 3.359E-04

     total cpu time spent up to now is     4274.5 secs

     total energy              =   -2125.87837051 Ry
     estimated scf accuracy    <       0.26419874 Ry

     total magnetization       =    19.00 Bohr mag/cell
     absolute magnetization    =    19.00 Bohr mag/cell

     iteration #  6     ecut=   100.00 Ry     beta= 0.40
     Davidson diagonalization with overlap
     c_bands:  4 eigenvalues not converged
     ethr =  1.40E-04,  avg # of iterations = 11.4

     negative rho (up, down):  0.000E+00 8.601E-04

     total cpu time spent up to now is     5454.1 secs

     total energy              =   -2125.89898709 Ry
     estimated scf accuracy    <       0.04664988 Ry

     total magnetization       =    19.00 Bohr mag/cell
     absolute magnetization    =    19.01 Bohr mag/cell

     iteration #  7     ecut=   100.00 Ry     beta= 0.40
     Davidson diagonalization with overlap
     c_bands:  1 eigenvalues not converged
     c_bands:  1 eigenvalues not converged
     c_bands:  1 eigenvalues not converged
     c_bands:  1 eigenvalues not converged
     c_bands:  1 eigenvalues not converged
     c_bands:  1 eigenvalues not converged
     c_bands:  1 eigenvalues not converged
     c_bands:  1 eigenvalues not converged
     c_bands:  1 eigenvalues not converged
     c_bands:  1 eigenvalues not converged
     c_bands:  1 eigenvalues not converged
     c_bands:  1 eigenvalues not converged
     c_bands:  2 eigenvalues not converged
     c_bands:  1 eigenvalues not converged
     c_bands:  1 eigenvalues not converged
     c_bands:  1 eigenvalues not converged
     c_bands:  1 eigenvalues not converged
     c_bands:  1 eigenvalues not converged
     ethr =  2.47E-05,  avg # of iterations =  9.8

     negative rho (up, down):  0.000E+00 9.639E-04

     total cpu time spent up to now is     6770.4 secs

     total energy              =   -2125.91591677 Ry
     estimated scf accuracy    <       0.01299025 Ry

     total magnetization       =    19.00 Bohr mag/cell
     absolute magnetization    =    19.02 Bohr mag/cell

     iteration #  8     ecut=   100.00 Ry     beta= 0.40
     Davidson diagonalization with overlap
     c_bands:  1 eigenvalues not converged
     c_bands:  1 eigenvalues not converged
     c_bands:  1 eigenvalues not converged
     c_bands:  1 eigenvalues not converged
     c_bands:  1 eigenvalues not converged
     c_bands:  1 eigenvalues not converged
     c_bands:  1 eigenvalues not converged
     c_bands:  1 eigenvalues not converged
     c_bands:  1 eigenvalues not converged
     c_bands:  1 eigenvalues not converged
     c_bands:  1 eigenvalues not converged
     c_bands:  1 eigenvalues not converged
     c_bands:  1 eigenvalues not converged
     c_bands:  1 eigenvalues not converged
     c_bands:  1 eigenvalues not converged
     c_bands:  1 eigenvalues not converged
     ethr =  6.87E-06,  avg # of iterations =  8.3

     negative rho (up, down):  0.000E+00 1.012E-03

     total cpu time spent up to now is     7688.9 secs

     total energy              =   -2125.91689659 Ry
     estimated scf accuracy    <       0.00279693 Ry

     total magnetization       =    19.00 Bohr mag/cell
     absolute magnetization    =    19.02 Bohr mag/cell

     iteration #  9     ecut=   100.00 Ry     beta= 0.40
     Davidson diagonalization with overlap
     c_bands:  1 eigenvalues not converged
     c_bands:  1 eigenvalues not converged
     c_bands:  1 eigenvalues not converged
     c_bands:  1 eigenvalues not converged
     c_bands:  1 eigenvalues not converged
     c_bands:  1 eigenvalues not converged
     c_bands:  1 eigenvalues not converged
     c_bands:  1 eigenvalues not converged
     c_bands:  1 eigenvalues not converged
     c_bands:  1 eigenvalues not converged
     c_bands:  1 eigenvalues not converged
     c_bands:  1 eigenvalues not converged
     c_bands:  1 eigenvalues not converged
     ethr =  1.48E-06,  avg # of iterations =  9.4

     negative rho (up, down):  0.000E+00 1.015E-03

     total cpu time spent up to now is     8808.0 secs

     total energy              =   -2125.91760886 Ry
     estimated scf accuracy    <       0.00069494 Ry

     total magnetization       =    19.00 Bohr mag/cell
     absolute magnetization    =    19.03 Bohr mag/cell

     iteration # 10     ecut=   100.00 Ry     beta= 0.40
     Davidson diagonalization with overlap
     ethr =  3.68E-07,  avg # of iterations =  2.8

     negative rho (up, down):  0.000E+00 1.019E-03

     total cpu time spent up to now is     9567.6 secs

     total energy              =   -2125.91771919 Ry
     estimated scf accuracy    <       0.00021324 Ry

     total magnetization       =    19.00 Bohr mag/cell
     absolute magnetization    =    19.03 Bohr mag/cell

     iteration # 11     ecut=   100.00 Ry     beta= 0.40
     Davidson diagonalization with overlap
     ethr =  1.13E-07,  avg # of iterations =  3.5

     negative rho (up, down):  0.000E+00 1.017E-03

     total cpu time spent up to now is    10442.8 secs

     total energy              =   -2125.91777239 Ry
     estimated scf accuracy    <       0.00003661 Ry

     total magnetization       =    19.00 Bohr mag/cell
     absolute magnetization    =    19.03 Bohr mag/cell

     iteration # 12     ecut=   100.00 Ry     beta= 0.40
     Davidson diagonalization with overlap
     ethr =  1.94E-08,  avg # of iterations =  3.9

     negative rho (up, down):  0.000E+00 1.017E-03

     total cpu time spent up to now is    11482.9 secs

     total energy              =   -2125.91779048 Ry
     estimated scf accuracy    <       0.00000678 Ry

     total magnetization       =    19.00 Bohr mag/cell
     absolute magnetization    =    19.04 Bohr mag/cell

     iteration # 13     ecut=   100.00 Ry     beta= 0.40
     Davidson diagonalization with overlap
     ethr =  3.59E-09,  avg # of iterations =  2.8

     negative rho (up, down):  0.000E+00 1.016E-03

     total cpu time spent up to now is    12301.2 secs

     total energy              =   -2125.91779331 Ry
     estimated scf accuracy    <       0.00000214 Ry

     total magnetization       =    19.00 Bohr mag/cell
     absolute magnetization    =    19.04 Bohr mag/cell

     iteration # 14     ecut=   100.00 Ry     beta= 0.40
     Davidson diagonalization with overlap
     ethr =  1.13E-09,  avg # of iterations =  2.4

     negative rho (up, down):  0.000E+00 1.016E-03

     total cpu time spent up to now is    13151.9 secs

     total energy              =   -2125.91779472 Ry
     estimated scf accuracy    <       0.00000244 Ry

     total magnetization       =    19.00 Bohr mag/cell
     absolute magnetization    =    19.04 Bohr mag/cell

     iteration # 15     ecut=   100.00 Ry     beta= 0.40
     Davidson diagonalization with overlap
     ethr =  1.13E-09,  avg # of iterations =  2.0

     negative rho (up, down):  0.000E+00 1.016E-03

     total cpu time spent up to now is    13893.1 secs

     total energy              =   -2125.91779516 Ry
     estimated scf accuracy    <       0.00000013 Ry

     total magnetization       =    19.00 Bohr mag/cell
     absolute magnetization    =    19.04 Bohr mag/cell

     iteration # 16     ecut=   100.00 Ry     beta= 0.40
     Davidson diagonalization with overlap
     ethr =  6.68E-11,  avg # of iterations =  4.8

     negative rho (up, down):  0.000E+00 1.016E-03

     total cpu time spent up to now is    15132.6 secs

     total energy              =   -2125.91779531 Ry
     estimated scf accuracy    <       0.00000008 Ry

     total magnetization       =    19.00 Bohr mag/cell
     absolute magnetization    =    19.04 Bohr mag/cell

     iteration # 17     ecut=   100.00 Ry     beta= 0.40
     Davidson diagonalization with overlap
     ethr =  4.24E-11,  avg # of iterations =  1.2

     negative rho (up, down):  0.000E+00 1.016E-03

     total cpu time spent up to now is    15761.2 secs

     total energy              =   -2125.91779535 Ry
     estimated scf accuracy    <       0.00000002 Ry

     total magnetization       =    19.00 Bohr mag/cell
     absolute magnetization    =    19.04 Bohr mag/cell

     iteration # 18     ecut=   100.00 Ry     beta= 0.40
     Davidson diagonalization with overlap
     ethr =  7.95E-12,  avg # of iterations =  2.5

     negative rho (up, down):  0.000E+00 1.016E-03

     total cpu time spent up to now is    16656.7 secs

     total energy              =   -2125.91779537 Ry
     estimated scf accuracy    <          8.2E-09 Ry

     total magnetization       =    19.00 Bohr mag/cell
     absolute magnetization    =    19.04 Bohr mag/cell

     iteration # 19     ecut=   100.00 Ry     beta= 0.40
     Davidson diagonalization with overlap
     ethr =  4.36E-12,  avg # of iterations =  2.0

     negative rho (up, down):  0.000E+00 1.016E-03

     total cpu time spent up to now is    17404.8 secs

     total energy              =   -2125.91779537 Ry
     estimated scf accuracy    <          2.0E-09 Ry

     total magnetization       =    19.00 Bohr mag/cell
     absolute magnetization    =    19.04 Bohr mag/cell

     iteration # 20     ecut=   100.00 Ry     beta= 0.40
     Davidson diagonalization with overlap
     ethr =  1.03E-12,  avg # of iterations =  3.6

     negative rho (up, down):  0.000E+00 1.016E-03

     total cpu time spent up to now is    18364.4 secs

     total energy              =   -2125.91779537 Ry
     estimated scf accuracy    <          7.0E-10 Ry

     total magnetization       =    19.00 Bohr mag/cell
     absolute magnetization    =    19.04 Bohr mag/cell

     iteration # 21     ecut=   100.00 Ry     beta= 0.40
     Davidson diagonalization with overlap
     ethr =  3.72E-13,  avg # of iterations =  2.6

     negative rho (up, down):  0.000E+00 1.016E-03

     Magnetic moment per site:
     atom:    1    charge:    7.9482    magn:    0.0011    constr:    0.0000
     atom:    2    charge:   12.6555    magn:    3.5671    constr:    0.0000
     atom:    3    charge:   12.6572    magn:    3.5540    constr:    0.0000
     atom:    4    charge:   12.6555    magn:    3.5671    constr:    0.0000
     atom:    5    charge:   12.6572    magn:    3.5540    constr:    0.0000
     atom:    6    charge:    0.7759    magn:    0.0122    constr:    0.0000
     atom:    7    charge:    0.7756    magn:    0.0094    constr:    0.0000
     atom:    8    charge:    0.7759    magn:    0.0122    constr:    0.0000
     atom:    9    charge:    0.7756    magn:    0.0094    constr:    0.0000
     atom:   10    charge:    4.0784    magn:    0.1267    constr:    0.0000
     atom:   11    charge:    4.0789    magn:    0.0825    constr:    0.0000
     atom:   12    charge:    4.0784    magn:    0.1267    constr:    0.0000
     atom:   13    charge:    4.0790    magn:    0.0825    constr:    0.0000
     atom:   14    charge:    4.0654    magn:    0.0893    constr:    0.0000
     atom:   15    charge:    4.0711    magn:    0.1301    constr:    0.0000
     atom:   16    charge:    4.0654    magn:    0.0893    constr:    0.0000
     atom:   17    charge:    4.0711    magn:    0.1301    constr:    0.0000
     atom:   18    charge:    4.0504    magn:    0.1542    constr:    0.0000
     atom:   19    charge:    4.0530    magn:    0.1341    constr:    0.0000
     atom:   20    charge:    4.0488    magn:    0.1464    constr:    0.0000
     atom:   21    charge:    4.0503    magn:    0.1232    constr:    0.0000
     atom:   22    charge:    4.0504    magn:    0.1542    constr:    0.0000
     atom:   23    charge:    4.0529    magn:    0.1341    constr:    0.0000
     atom:   24    charge:    4.0488    magn:    0.1464    constr:    0.0000
     atom:   25    charge:    4.0504    magn:    0.1232    constr:    0.0000

     total cpu time spent up to now is    19192.4 secs

     End of self-consistent calculation

 ------ SPIN UP ------------


          k = 0.0000 0.0000 0.0000 ( 31277 PWs)   bands (ev):

   -82.9632 -82.9627 -82.9239 -82.9230 -49.1226 -49.1218 -49.1191 -49.1186
   -48.9464 -48.9458 -48.8529 -48.8522 -48.8443 -48.8433 -48.8360 -48.8349
   -42.7250 -15.5576 -15.4533 -15.2335 -15.0944 -14.7850 -14.7559 -14.5448
   -12.6407 -12.5953 -12.5336 -12.4883 -12.3738 -12.3022 -12.2965 -12.2662
   -12.2160 -12.1909 -12.0650 -12.0197  -2.7099  -2.1371  -1.9873  -1.4588
    -1.1868  -0.7419  -0.6052  -0.5519  -0.4556  -0.1227  -0.1036  -0.0495
     0.0835   0.3507   0.4641   0.7614   0.9334   1.0245   1.6095   1.6857
     1.7414   1.8477   1.9941   2.0333   2.1540   2.1994   2.5444   2.6883
     2.7833   2.8516   2.9916   3.0737   3.0853   3.1951   3.1978   3.2607
     3.2825   3.6253   3.7883   3.8357   4.0235   4.0595   4.1109   4.1380
     4.3824   4.4325   4.6438   4.7511   4.7617   4.7763   5.0864   5.1347
     5.2399   5.2562   5.3022   5.4007   5.5567   5.5917   5.5931   5.7760
     5.8441   6.0044   6.3193   6.6503   6.7936   6.9925   7.1049   7.1869
    12.0580  14.2069  14.2893  14.8820  14.8867  15.2064  16.1193  16.3703
    16.4905  16.6350

     occupation numbers 
     1.0000   1.0000   1.0000   1.0000   1.0000   1.0000   1.0000   1.0000
     1.0000   1.0000   1.0000   1.0000   1.0000   1.0000   1.0000   1.0000
     1.0000   1.0000   1.0000   1.0000   1.0000   1.0000   1.0000   1.0000
     1.0000   1.0000   1.0000   1.0000   1.0000   1.0000   1.0000   1.0000
     1.0000   1.0000   1.0000   1.0000   1.0000   1.0000   1.0000   1.0000
     1.0000   1.0000   1.0000   1.0000   1.0000   1.0000   1.0000   1.0000
     1.0000   1.0000   1.0000   1.0000   1.0000   1.0000   1.0000   1.0000
     1.0000   1.0000   1.0000   1.0000   1.0000   1.0000   1.0000   1.0000
     1.0000   1.0000   1.0000   1.0000   1.0000   1.0000   1.0000   1.0000
     1.0000   1.0000   1.0000   1.0000   1.0000   1.0000   1.0000   1.0000
     1.0000   1.0000   1.0000   1.0000   1.0000   1.0000   1.0000   1.0000
     1.0000   1.0000   1.0000   1.0000   1.0000   1.0000   1.0000   1.0000
     1.0000   1.0000   1.0000   1.0000   1.0000   1.0000   1.0000   1.0000
     0.0000   0.0000   0.0000   0.0000   0.0000   0.0000   0.0000   0.0000
     0.0000   0.0000

          k = 0.0000 0.0000 0.2337 ( 31269 PWs)   bands (ev):

   -82.9632 -82.9627 -82.9239 -82.9230 -49.1226 -49.1218 -49.1191 -49.1186
   -48.9464 -48.9458 -48.8529 -48.8522 -48.8443 -48.8433 -48.8360 -48.8349
   -42.7250 -15.5590 -15.4244 -15.2407 -15.0837 -14.7649 -14.7542 -14.5635
   -12.6523 -12.6136 -12.5425 -12.4936 -12.3652 -12.3242 -12.2850 -12.2639
   -12.2241 -12.1950 -12.0700 -12.0277  -2.6824  -2.1235  -1.9916  -1.4808
    -1.1107  -0.7026  -0.6236  -0.5257  -0.4516  -0.1799  -0.0827   0.0223
     0.1016   0.3876   0.4097   0.7886   0.9523   0.9782   1.6110   1.6815
     1.7483   1.8709   1.9425   2.0946   2.1514   2.1718   2.4877   2.7301
     2.7703   2.7985   2.9615   3.0549   3.0600   3.1458   3.1937   3.2688
     3.4069   3.6009   3.7602   3.8581   3.9630   4.0072   4.0839   4.1870
     4.4004   4.4662   4.5553   4.7398   4.7852   4.8570   5.0124   5.0897
     5.2157   5.2459   5.3140   5.3541   5.5540   5.6152   5.7096   5.8084
     5.8781   5.9877   6.3606   6.6326   6.7913   6.9727   7.0751   7.1596
    12.2090  14.2285  14.3773  14.7904  15.0549  15.2216  16.1918  16.2608
    16.3020  16.4288

     occupation numbers 
     1.0000   1.0000   1.0000   1.0000   1.0000   1.0000   1.0000   1.0000
     1.0000   1.0000   1.0000   1.0000   1.0000   1.0000   1.0000   1.0000
     1.0000   1.0000   1.0000   1.0000   1.0000   1.0000   1.0000   1.0000
     1.0000   1.0000   1.0000   1.0000   1.0000   1.0000   1.0000   1.0000
     1.0000   1.0000   1.0000   1.0000   1.0000   1.0000   1.0000   1.0000
     1.0000   1.0000   1.0000   1.0000   1.0000   1.0000   1.0000   1.0000
     1.0000   1.0000   1.0000   1.0000   1.0000   1.0000   1.0000   1.0000
     1.0000   1.0000   1.0000   1.0000   1.0000   1.0000   1.0000   1.0000
     1.0000   1.0000   1.0000   1.0000   1.0000   1.0000   1.0000   1.0000
     1.0000   1.0000   1.0000   1.0000   1.0000   1.0000   1.0000   1.0000
     1.0000   1.0000   1.0000   1.0000   1.0000   1.0000   1.0000   1.0000
     1.0000   1.0000   1.0000   1.0000   1.0000   1.0000   1.0000   1.0000
     1.0000   1.0000   1.0000   1.0000   1.0000   1.0000   1.0000   1.0000
     0.0000   0.0000   0.0000   0.0000   0.0000   0.0000   0.0000   0.0000
     0.0000   0.0000

          k = 0.0000 0.0000 0.4675 ( 31276 PWs)   bands (ev):

   -82.9632 -82.9627 -82.9239 -82.9230 -49.1226 -49.1218 -49.1191 -49.1186
   -48.9464 -48.9458 -48.8529 -48.8522 -48.8443 -48.8433 -48.8360 -48.8349
   -42.7250 -15.5580 -15.3512 -15.2509 -15.0588 -14.7548 -14.7157 -14.6125
   -12.6809 -12.6579 -12.5714 -12.5118 -12.3660 -12.3424 -12.2721 -12.2598
   -12.2300 -12.2054 -12.0846 -12.0502  -2.6018  -2.1038  -1.9919  -1.5516
    -0.9088  -0.6519  -0.6053  -0.4940  -0.4320  -0.2120  -0.0758   0.0775
     0.2434   0.2860   0.4924   0.8147   0.8984   1.0070   1.6050   1.6919
     1.7658   1.8685   1.9689   2.0775   2.1733   2.1983   2.3490   2.7340
     2.7695   2.8120   2.8924   2.9203   2.9899   3.0434   3.1952   3.2744
     3.4088   3.5816   3.7135   3.8556   3.9254   3.9553   4.0197   4.2656
     4.3780   4.4596   4.6716   4.7030   4.7754   4.8100   4.9473   5.0632
     5.1439   5.2002   5.2617   5.3653   5.6502   5.6976   5.8215   5.8807
     5.9414   6.0204   6.4508   6.5996   6.7793   6.9218   6.9875   7.0784
    12.6151  14.2997  14.6202  14.7925  15.2131  15.3166  15.7837  16.0322
    16.1936  16.2578

     occupation numbers 
     1.0000   1.0000   1.0000   1.0000   1.0000   1.0000   1.0000   1.0000
     1.0000   1.0000   1.0000   1.0000   1.0000   1.0000   1.0000   1.0000
     1.0000   1.0000   1.0000   1.0000   1.0000   1.0000   1.0000   1.0000
     1.0000   1.0000   1.0000   1.0000   1.0000   1.0000   1.0000   1.0000
     1.0000   1.0000   1.0000   1.0000   1.0000   1.0000   1.0000   1.0000
     1.0000   1.0000   1.0000   1.0000   1.0000   1.0000   1.0000   1.0000
     1.0000   1.0000   1.0000   1.0000   1.0000   1.0000   1.0000   1.0000
     1.0000   1.0000   1.0000   1.0000   1.0000   1.0000   1.0000   1.0000
     1.0000   1.0000   1.0000   1.0000   1.0000   1.0000   1.0000   1.0000
     1.0000   1.0000   1.0000   1.0000   1.0000   1.0000   1.0000   1.0000
     1.0000   1.0000   1.0000   1.0000   1.0000   1.0000   1.0000   1.0000
     1.0000   1.0000   1.0000   1.0000   1.0000   1.0000   1.0000   1.0000
     1.0000   1.0000   1.0000   1.0000   1.0000   1.0000   1.0000   1.0000
     0.0000   0.0000   0.0000   0.0000   0.0000   0.0000   0.0000   0.0000
     0.0000   0.0000

          k = 0.0000 0.0000 0.7012 ( 31286 PWs)   bands (ev):

   -82.9632 -82.9627 -82.9239 -82.9230 -49.1226 -49.1218 -49.1191 -49.1186
   -48.9464 -48.9458 -48.8529 -48.8522 -48.8443 -48.8433 -48.8360 -48.8349
   -42.7250 -15.5551 -15.2775 -15.2280 -15.0350 -14.7535 -14.7244 -14.6243
   -12.7180 -12.7003 -12.6135 -12.5471 -12.3949 -12.3225 -12.2808 -12.2363
   -12.2275 -12.2026 -12.1077 -12.0830  -2.4773  -2.1198  -1.9685  -1.6646
    -0.7426  -0.5919  -0.5247  -0.4527  -0.3796  -0.2192  -0.0557   0.0411
     0.1576   0.5342   0.6043   0.6530   1.0259   1.1215   1.5781   1.7288
     1.8144   1.8240   1.9932   2.0775   2.1398   2.1875   2.2942   2.6057
     2.7257   2.7961   2.8193   2.8905   2.9196   3.0109   3.0660   3.1961
     3.2995   3.4441   3.6698   3.7541   3.9429   3.9866   4.1862   4.2804
     4.3644   4.5154   4.6126   4.6654   4.7035   4.8188   4.9258   5.0178
     5.1040   5.1622   5.2644   5.4118   5.7435   5.7890   5.8483   5.9755
     6.0077   6.2152   6.5349   6.5775   6.7425   6.8471   6.8736   6.9510
    13.1765  14.4367  14.8607  14.9265  15.0822  15.3785  15.5594  15.8458
    15.9541  16.0881

     occupation numbers 
     1.0000   1.0000   1.0000   1.0000   1.0000   1.0000   1.0000   1.0000
     1.0000   1.0000   1.0000   1.0000   1.0000   1.0000   1.0000   1.0000
     1.0000   1.0000   1.0000   1.0000   1.0000   1.0000   1.0000   1.0000
     1.0000   1.0000   1.0000   1.0000   1.0000   1.0000   1.0000   1.0000
     1.0000   1.0000   1.0000   1.0000   1.0000   1.0000   1.0000   1.0000
     1.0000   1.0000   1.0000   1.0000   1.0000   1.0000   1.0000   1.0000
     1.0000   1.0000   1.0000   1.0000   1.0000   1.0000   1.0000   1.0000
     1.0000   1.0000   1.0000   1.0000   1.0000   1.0000   1.0000   1.0000
     1.0000   1.0000   1.0000   1.0000   1.0000   1.0000   1.0000   1.0000
     1.0000   1.0000   1.0000   1.0000   1.0000   1.0000   1.0000   1.0000
     1.0000   1.0000   1.0000   1.0000   1.0000   1.0000   1.0000   1.0000
     1.0000   1.0000   1.0000   1.0000   1.0000   1.0000   1.0000   1.0000
     1.0000   1.0000   1.0000   1.0000   1.0000   1.0000   1.0000   1.0000
     0.0000   0.0000   0.0000   0.0000   0.0000   0.0000   0.0000   0.0000
     0.0000   0.0000

          k = 0.0000 0.0000 0.9349 ( 31288 PWs)   bands (ev):

   -82.9632 -82.9627 -82.9239 -82.9230 -49.1226 -49.1218 -49.1191 -49.1186
   -48.9464 -48.9458 -48.8529 -48.8522 -48.8443 -48.8433 -48.8361 -48.8349
   -42.7250 -15.5536 -15.2665 -15.1416 -15.0313 -14.7913 -14.7509 -14.5927
   -12.7484 -12.7198 -12.6462 -12.5790 -12.4052 -12.3159 -12.2772 -12.2471
   -12.1956 -12.1823 -12.1373 -12.1133  -2.3306  -2.1986  -1.9086  -1.7897
    -0.6972  -0.6068  -0.3966  -0.3748  -0.2780  -0.1924  -0.1331  -0.0713
     0.2513   0.4194   0.7234   0.7488   1.2604   1.3312   1.5174   1.6272
     1.7718   1.8751   1.9554   2.0268   2.0627   2.1071   2.3362   2.5294
     2.6607   2.7542   2.7743   2.8429   2.8682   3.0165   3.0261   3.1960
     3.3064   3.3749   3.4672   3.5863   3.9706   4.1992   4.2158   4.3408
     4.3821   4.5418   4.5640   4.5876   4.6381   4.7845   4.8560   5.0299
     5.1020   5.1440   5.3683   5.4457   5.7562   5.7842   5.8090   6.0701
     6.2430   6.4117   6.5271   6.5747   6.6341   6.7626   6.8215   6.8409
    13.8007  14.4270  14.5954  14.9925  15.2434  15.3791  15.6098  15.6747
    15.8828  16.0093

     occupation numbers 
     1.0000   1.0000   1.0000   1.0000   1.0000   1.0000   1.0000   1.0000
     1.0000   1.0000   1.0000   1.0000   1.0000   1.0000   1.0000   1.0000
     1.0000   1.0000   1.0000   1.0000   1.0000   1.0000   1.0000   1.0000
     1.0000   1.0000   1.0000   1.0000   1.0000   1.0000   1.0000   1.0000
     1.0000   1.0000   1.0000   1.0000   1.0000   1.0000   1.0000   1.0000
     1.0000   1.0000   1.0000   1.0000   1.0000   1.0000   1.0000   1.0000
     1.0000   1.0000   1.0000   1.0000   1.0000   1.0000   1.0000   1.0000
     1.0000   1.0000   1.0000   1.0000   1.0000   1.0000   1.0000   1.0000
     1.0000   1.0000   1.0000   1.0000   1.0000   1.0000   1.0000   1.0000
     1.0000   1.0000   1.0000   1.0000   1.0000   1.0000   1.0000   1.0000
     1.0000   1.0000   1.0000   1.0000   1.0000   1.0000   1.0000   1.0000
     1.0000   1.0000   1.0000   1.0000   1.0000   1.0000   1.0000   1.0000
     1.0000   1.0000   1.0000   1.0000   1.0000   1.0000   1.0000   1.0000
     0.0000   0.0000   0.0000   0.0000   0.0000   0.0000   0.0000   0.0000
     0.0000   0.0000

          k = 0.0000 0.2391 0.0000 ( 31251 PWs)   bands (ev):

   -82.9632 -82.9627 -82.9239 -82.9230 -49.1226 -49.1218 -49.1191 -49.1186
   -48.9464 -48.9458 -48.8529 -48.8522 -48.8443 -48.8433 -48.8360 -48.8349
   -42.7250 -15.5466 -15.4416 -15.2318 -15.1060 -14.7853 -14.7561 -14.5520
   -12.6545 -12.5945 -12.5263 -12.4908 -12.4313 -12.3203 -12.2917 -12.2383
   -12.2108 -12.1608 -12.0492 -12.0352  -2.6787  -2.1610  -1.9512  -1.4593
    -1.1587  -0.7532  -0.6142  -0.5553  -0.4003  -0.1170  -0.1037  -0.0280
     0.1193   0.3497   0.5130   0.7828   0.8903   1.0474   1.6370   1.6728
     1.7006   1.8185   1.9008   1.9430   2.0469   2.3108   2.6087   2.6878
     2.8886   2.9027   2.9464   2.9586   3.0443   3.0849   3.2420   3.2689
     3.3522   3.6265   3.8025   3.8422   3.9755   4.0392   4.0957   4.2028
     4.3815   4.4530   4.6022   4.6831   4.7623   4.7851   5.0182   5.0656
     5.1597   5.2161   5.3452   5.4266   5.5544   5.6281   5.6628   5.7794
     5.8413   5.9933   6.4208   6.5472   6.7693   6.8869   7.2183   7.2497
    12.2166  14.2978  14.3914  14.8242  15.0112  15.3193  16.0561  16.2956
    16.4106  16.6025

     occupation numbers 
     1.0000   1.0000   1.0000   1.0000   1.0000   1.0000   1.0000   1.0000
     1.0000   1.0000   1.0000   1.0000   1.0000   1.0000   1.0000   1.0000
     1.0000   1.0000   1.0000   1.0000   1.0000   1.0000   1.0000   1.0000
     1.0000   1.0000   1.0000   1.0000   1.0000   1.0000   1.0000   1.0000
     1.0000   1.0000   1.0000   1.0000   1.0000   1.0000   1.0000   1.0000
     1.0000   1.0000   1.0000   1.0000   1.0000   1.0000   1.0000   1.0000
     1.0000   1.0000   1.0000   1.0000   1.0000   1.0000   1.0000   1.0000
     1.0000   1.0000   1.0000   1.0000   1.0000   1.0000   1.0000   1.0000
     1.0000   1.0000   1.0000   1.0000   1.0000   1.0000   1.0000   1.0000
     1.0000   1.0000   1.0000   1.0000   1.0000   1.0000   1.0000   1.0000
     1.0000   1.0000   1.0000   1.0000   1.0000   1.0000   1.0000   1.0000
     1.0000   1.0000   1.0000   1.0000   1.0000   1.0000   1.0000   1.0000
     1.0000   1.0000   1.0000   1.0000   1.0000   1.0000   1.0000   1.0000
     0.0000   0.0000   0.0000   0.0000   0.0000   0.0000   0.0000   0.0000
     0.0000   0.0000

          k = 0.0000 0.2391 0.2337 ( 31298 PWs)   bands (ev):

   -82.9632 -82.9627 -82.9239 -82.9230 -49.1226 -49.1218 -49.1191 -49.1186
   -48.9464 -48.9458 -48.8529 -48.8522 -48.8443 -48.8433 -48.8360 -48.8349
   -42.7250 -15.5274 -15.4376 -15.2348 -15.1001 -14.7634 -14.7548 -14.5669
   -12.6630 -12.6110 -12.5309 -12.4981 -12.4353 -12.3209 -12.3018 -12.2478
   -12.2073 -12.1602 -12.0579 -12.0388  -2.6518  -2.1462  -1.9550  -1.4798
    -1.0877  -0.7151  -0.6206  -0.5384  -0.3945  -0.1772  -0.0661   0.0394
     0.1392   0.3841   0.4594   0.7679   0.8950   1.0485   1.6255   1.6713
     1.7345   1.8011   1.8797   1.9922   1.9977   2.2945   2.6120   2.6716
     2.7886   2.8733   2.8972   3.0133   3.0686   3.1211   3.2105   3.2703
     3.4584   3.5823   3.7645   3.8753   3.9209   4.0331   4.0821   4.1887
     4.4152   4.4604   4.5223   4.6803   4.7458   4.8663   4.9664   5.0670
     5.1184   5.2087   5.3349   5.3820   5.5967   5.6401   5.7188   5.8390
     5.8505   5.9840   6.4521   6.5098   6.7502   6.8971   7.1973   7.2303
    12.3623  14.3189  14.4769  14.8232  15.0926  15.3155  16.1336  16.1547
    16.2524  16.4173

     occupation numbers 
     1.0000   1.0000   1.0000   1.0000   1.0000   1.0000   1.0000   1.0000
     1.0000   1.0000   1.0000   1.0000   1.0000   1.0000   1.0000   1.0000
     1.0000   1.0000   1.0000   1.0000   1.0000   1.0000   1.0000   1.0000
     1.0000   1.0000   1.0000   1.0000   1.0000   1.0000   1.0000   1.0000
     1.0000   1.0000   1.0000   1.0000   1.0000   1.0000   1.0000   1.0000
     1.0000   1.0000   1.0000   1.0000   1.0000   1.0000   1.0000   1.0000
     1.0000   1.0000   1.0000   1.0000   1.0000   1.0000   1.0000   1.0000
     1.0000   1.0000   1.0000   1.0000   1.0000   1.0000   1.0000   1.0000
     1.0000   1.0000   1.0000   1.0000   1.0000   1.0000   1.0000   1.0000
     1.0000   1.0000   1.0000   1.0000   1.0000   1.0000   1.0000   1.0000
     1.0000   1.0000   1.0000   1.0000   1.0000   1.0000   1.0000   1.0000
     1.0000   1.0000   1.0000   1.0000   1.0000   1.0000   1.0000   1.0000
     1.0000   1.0000   1.0000   1.0000   1.0000   1.0000   1.0000   1.0000
     0.0000   0.0000   0.0000   0.0000   0.0000   0.0000   0.0000   0.0000
     0.0000   0.0000

          k = 0.0000 0.2391 0.4675 ( 31274 PWs)   bands (ev):

   -82.9632 -82.9627 -82.9239 -82.9230 -49.1226 -49.1218 -49.1191 -49.1186
   -48.9464 -48.9458 -48.8529 -48.8522 -48.8443 -48.8433 -48.8360 -48.8349
   -42.7250 -15.5234 -15.3739 -15.2416 -15.0767 -14.7547 -14.7166 -14.6083
   -12.6894 -12.6613 -12.5574 -12.5168 -12.4201 -12.3576 -12.3003 -12.2490
   -12.2148 -12.1552 -12.0740 -12.0536  -2.5723  -2.1210  -1.9580  -1.5503
    -0.8955  -0.6354  -0.6172  -0.5055  -0.3735  -0.2073  -0.0596   0.1249
     0.2656   0.3251   0.4815   0.7049   0.9349   1.0534   1.6067   1.6786
     1.6920   1.8031   1.9462   1.9586   2.0804   2.2639   2.5150   2.6899
     2.7360   2.8104   2.8736   2.9594   3.0345   3.0990   3.1627   3.2668
     3.4106   3.6104   3.7286   3.8560   3.8747   3.9255   4.0834   4.2252
     4.3452   4.4969   4.5781   4.6614   4.7587   4.8166   4.9385   4.9979
     5.0922   5.2368   5.3297   5.3460   5.6213   5.7263   5.8417   5.8764
     5.9420   5.9740   6.4448   6.5241   6.7053   6.8982   7.1348   7.1765
    12.7562  14.3871  14.7140  14.8674  15.2593  15.3520  15.7584  15.9826
    16.1215  16.3268

     occupation numbers 
     1.0000   1.0000   1.0000   1.0000   1.0000   1.0000   1.0000   1.0000
     1.0000   1.0000   1.0000   1.0000   1.0000   1.0000   1.0000   1.0000
     1.0000   1.0000   1.0000   1.0000   1.0000   1.0000   1.0000   1.0000
     1.0000   1.0000   1.0000   1.0000   1.0000   1.0000   1.0000   1.0000
     1.0000   1.0000   1.0000   1.0000   1.0000   1.0000   1.0000   1.0000
     1.0000   1.0000   1.0000   1.0000   1.0000   1.0000   1.0000   1.0000
     1.0000   1.0000   1.0000   1.0000   1.0000   1.0000   1.0000   1.0000
     1.0000   1.0000   1.0000   1.0000   1.0000   1.0000   1.0000   1.0000
     1.0000   1.0000   1.0000   1.0000   1.0000   1.0000   1.0000   1.0000
     1.0000   1.0000   1.0000   1.0000   1.0000   1.0000   1.0000   1.0000
     1.0000   1.0000   1.0000   1.0000   1.0000   1.0000   1.0000   1.0000
     1.0000   1.0000   1.0000   1.0000   1.0000   1.0000   1.0000   1.0000
     1.0000   1.0000   1.0000   1.0000   1.0000   1.0000   1.0000   1.0000
     0.0000   0.0000   0.0000   0.0000   0.0000   0.0000   0.0000   0.0000
     0.0000   0.0000

          k = 0.0000 0.2391 0.7012 ( 31293 PWs)   bands (ev):

   -82.9632 -82.9627 -82.9239 -82.9230 -49.1226 -49.1218 -49.1191 -49.1186
   -48.9464 -48.9458 -48.8529 -48.8522 -48.8443 -48.8433 -48.8360 -48.8349
   -42.7250 -15.5279 -15.2843 -15.2325 -15.0505 -14.7534 -14.7274 -14.6131
   -12.7241 -12.7131 -12.5993 -12.5520 -12.4122 -12.3731 -12.3042 -12.2396
   -12.2202 -12.1420 -12.0944 -12.0788  -2.4498  -2.1253  -1.9419  -1.6647
    -0.7238  -0.5814  -0.5238  -0.4636  -0.3209  -0.2091  -0.0459   0.0773
     0.2132   0.5340   0.5669   0.6257   1.0467   1.0895   1.5291   1.6316
     1.7164   1.8469   1.9496   2.0477   2.1388   2.2870   2.3866   2.6123
     2.6688   2.8025   2.8346   2.9089   2.9719   3.0409   3.0797   3.1731
     3.2684   3.4544   3.6545   3.7546   3.9107   3.9828   4.1844   4.2478
     4.3214   4.5150   4.5570   4.6931   4.7330   4.7765   4.8625   4.9898
     5.0784   5.2032   5.3614   5.4076   5.7169   5.7779   5.8533   5.9290
     6.0006   6.1341   6.3832   6.5185   6.7139   6.8956   7.0385   7.1005
    13.3046  14.5207  14.9411  15.0277  15.1520  15.4346  15.5186  15.7729
    15.9275  16.1371

     occupation numbers 
     1.0000   1.0000   1.0000   1.0000   1.0000   1.0000   1.0000   1.0000
     1.0000   1.0000   1.0000   1.0000   1.0000   1.0000   1.0000   1.0000
     1.0000   1.0000   1.0000   1.0000   1.0000   1.0000   1.0000   1.0000
     1.0000   1.0000   1.0000   1.0000   1.0000   1.0000   1.0000   1.0000
     1.0000   1.0000   1.0000   1.0000   1.0000   1.0000   1.0000   1.0000
     1.0000   1.0000   1.0000   1.0000   1.0000   1.0000   1.0000   1.0000
     1.0000   1.0000   1.0000   1.0000   1.0000   1.0000   1.0000   1.0000
     1.0000   1.0000   1.0000   1.0000   1.0000   1.0000   1.0000   1.0000
     1.0000   1.0000   1.0000   1.0000   1.0000   1.0000   1.0000   1.0000
     1.0000   1.0000   1.0000   1.0000   1.0000   1.0000   1.0000   1.0000
     1.0000   1.0000   1.0000   1.0000   1.0000   1.0000   1.0000   1.0000
     1.0000   1.0000   1.0000   1.0000   1.0000   1.0000   1.0000   1.0000
     1.0000   1.0000   1.0000   1.0000   1.0000   1.0000   1.0000   1.0000
     0.0000   0.0000   0.0000   0.0000   0.0000   0.0000   0.0000   0.0000
     0.0000   0.0000

          k = 0.0000 0.2391 0.9349 ( 31292 PWs)   bands (ev):

   -82.9632 -82.9627 -82.9239 -82.9230 -49.1226 -49.1218 -49.1191 -49.1186
   -48.9464 -48.9458 -48.8529 -48.8522 -48.8443 -48.8433 -48.8361 -48.8349
   -42.7250 -15.5351 -15.2533 -15.1628 -15.0405 -14.7901 -14.7510 -14.5847
   -12.7553 -12.7344 -12.6391 -12.5810 -12.4211 -12.3624 -12.2966 -12.2557
   -12.1949 -12.1247 -12.1223 -12.1002  -2.3072  -2.1888  -1.8948  -1.7865
    -0.6691  -0.5934  -0.4004  -0.3806  -0.2274  -0.1791  -0.0905  -0.0616
     0.2847   0.3995   0.7294   0.7424   1.2138   1.2337   1.3976   1.4777
     1.8324   1.8529   2.0017   2.0948   2.1756   2.2112   2.3080   2.5017
     2.6599   2.7488   2.7995   2.8751   2.8911   2.9959   3.0304   3.1646
     3.2191   3.3694   3.4732   3.6213   3.9493   4.1452   4.1904   4.3089
     4.3527   4.4669   4.5644   4.6707   4.6942   4.7615   4.7970   4.9964
     5.0918   5.1758   5.4255   5.4721   5.7778   5.7805   5.7881   6.0376
     6.1019   6.2819   6.3181   6.4485   6.7603   6.8786   6.9594   7.0326
    13.9167  14.5205  14.6752  15.0847  15.3211  15.4420  15.5526  15.6636
    15.8824  16.1206

     occupation numbers 
     1.0000   1.0000   1.0000   1.0000   1.0000   1.0000   1.0000   1.0000
     1.0000   1.0000   1.0000   1.0000   1.0000   1.0000   1.0000   1.0000
     1.0000   1.0000   1.0000   1.0000   1.0000   1.0000   1.0000   1.0000
     1.0000   1.0000   1.0000   1.0000   1.0000   1.0000   1.0000   1.0000
     1.0000   1.0000   1.0000   1.0000   1.0000   1.0000   1.0000   1.0000
     1.0000   1.0000   1.0000   1.0000   1.0000   1.0000   1.0000   1.0000
     1.0000   1.0000   1.0000   1.0000   1.0000   1.0000   1.0000   1.0000
     1.0000   1.0000   1.0000   1.0000   1.0000   1.0000   1.0000   1.0000
     1.0000   1.0000   1.0000   1.0000   1.0000   1.0000   1.0000   1.0000
     1.0000   1.0000   1.0000   1.0000   1.0000   1.0000   1.0000   1.0000
     1.0000   1.0000   1.0000   1.0000   1.0000   1.0000   1.0000   1.0000
     1.0000   1.0000   1.0000   1.0000   1.0000   1.0000   1.0000   1.0000
     1.0000   1.0000   1.0000   1.0000   1.0000   1.0000   1.0000   1.0000
     0.0000   0.0000   0.0000   0.0000   0.0000   0.0000   0.0000   0.0000
     0.0000   0.0000

          k = 0.0000 0.4781 0.0000 ( 31226 PWs)   bands (ev):

   -82.9632 -82.9627 -82.9239 -82.9230 -49.1226 -49.1218 -49.1191 -49.1186
   -48.9464 -48.9458 -48.8529 -48.8522 -48.8443 -48.8433 -48.8360 -48.8349
   -42.7250 -15.5246 -15.4042 -15.2275 -15.1420 -14.7860 -14.7567 -14.5671
   -12.6833 -12.5896 -12.5421 -12.5111 -12.4622 -12.3537 -12.2598 -12.2316
   -12.2181 -12.0941 -12.0717 -12.0216  -2.5924  -2.2319  -1.8518  -1.4922
    -1.0715  -0.7877  -0.6249  -0.5643  -0.2853  -0.1429  -0.0382   0.0478
     0.1639   0.3868   0.5968   0.7516   0.8778   1.1193   1.5167   1.5719
     1.7111   1.7596   1.8109   1.8748   1.9839   2.3865   2.5216   2.6952
     2.6984   2.8690   2.8951   2.9921   3.1021   3.1525   3.2550   3.3505
     3.5250   3.5839   3.7439   3.8540   3.9276   3.9364   4.0433   4.2781
     4.4001   4.4872   4.5581   4.6290   4.6996   4.8033   4.8411   4.9409
     5.0577   5.1123   5.4618   5.5051   5.5638   5.6612   5.7082   5.8062
     5.9039   5.9759   6.3194   6.4455   6.7049   7.0369   7.2804   7.3121
    12.6499  14.4159  14.6699  14.6754  15.2952  15.5965  15.8615  16.0620
    16.2893  16.5259

     occupation numbers 
     1.0000   1.0000   1.0000   1.0000   1.0000   1.0000   1.0000   1.0000
     1.0000   1.0000   1.0000   1.0000   1.0000   1.0000   1.0000   1.0000
     1.0000   1.0000   1.0000   1.0000   1.0000   1.0000   1.0000   1.0000
     1.0000   1.0000   1.0000   1.0000   1.0000   1.0000   1.0000   1.0000
     1.0000   1.0000   1.0000   1.0000   1.0000   1.0000   1.0000   1.0000
     1.0000   1.0000   1.0000   1.0000   1.0000   1.0000   1.0000   1.0000
     1.0000   1.0000   1.0000   1.0000   1.0000   1.0000   1.0000   1.0000
     1.0000   1.0000   1.0000   1.0000   1.0000   1.0000   1.0000   1.0000
     1.0000   1.0000   1.0000   1.0000   1.0000   1.0000   1.0000   1.0000
     1.0000   1.0000   1.0000   1.0000   1.0000   1.0000   1.0000   1.0000
     1.0000   1.0000   1.0000   1.0000   1.0000   1.0000   1.0000   1.0000
     1.0000   1.0000   1.0000   1.0000   1.0000   1.0000   1.0000   1.0000
     1.0000   1.0000   1.0000   1.0000   1.0000   1.0000   1.0000   1.0000
     0.0000   0.0000   0.0000   0.0000   0.0000   0.0000   0.0000   0.0000
     0.0000   0.0000

          k = 0.0000 0.4781 0.2337 ( 31258 PWs)   bands (ev):

   -82.9632 -82.9627 -82.9239 -82.9230 -49.1226 -49.1218 -49.1191 -49.1186
   -48.9464 -48.9458 -48.8529 -48.8522 -48.8443 -48.8433 -48.8360 -48.8349
   -42.7250 -15.4830 -15.4300 -15.2250 -15.1361 -14.7627 -14.7554 -14.5804
   -12.6869 -12.6029 -12.5467 -12.5100 -12.4874 -12.3623 -12.2726 -12.2321
   -12.2191 -12.0864 -12.0726 -12.0300  -2.5667  -2.2138  -1.8564  -1.5092
    -1.0116  -0.7484  -0.6134  -0.5535  -0.2803  -0.1702   0.0027   0.0803
     0.2143   0.3920   0.5449   0.6824   0.9174   1.1256   1.4929   1.5424
     1.6926   1.7708   1.8178   1.8927   1.9885   2.4020   2.5214   2.6472
     2.6816   2.7781   2.9074   3.0275   3.1018   3.1934   3.2910   3.3481
     3.5246   3.5909   3.7385   3.8254   3.9133   3.9665   4.0745   4.1900
     4.3603   4.4431   4.5896   4.6187   4.6326   4.8385   4.8907   4.9499
     4.9954   5.0745   5.4559   5.4887   5.6458   5.6883   5.7375   5.8252
     5.9003   5.9735   6.2736   6.4280   6.7284   7.0440   7.2724   7.3016
    12.7809  14.4449  14.7173  14.7629  15.3093  15.5663  15.9357  15.9851
    16.1640  16.3905

     occupation numbers 
     1.0000   1.0000   1.0000   1.0000   1.0000   1.0000   1.0000   1.0000
     1.0000   1.0000   1.0000   1.0000   1.0000   1.0000   1.0000   1.0000
     1.0000   1.0000   1.0000   1.0000   1.0000   1.0000   1.0000   1.0000
     1.0000   1.0000   1.0000   1.0000   1.0000   1.0000   1.0000   1.0000
     1.0000   1.0000   1.0000   1.0000   1.0000   1.0000   1.0000   1.0000
     1.0000   1.0000   1.0000   1.0000   1.0000   1.0000   1.0000   1.0000
     1.0000   1.0000   1.0000   1.0000   1.0000   1.0000   1.0000   1.0000
     1.0000   1.0000   1.0000   1.0000   1.0000   1.0000   1.0000   1.0000
     1.0000   1.0000   1.0000   1.0000   1.0000   1.0000   1.0000   1.0000
     1.0000   1.0000   1.0000   1.0000   1.0000   1.0000   1.0000   1.0000
     1.0000   1.0000   1.0000   1.0000   1.0000   1.0000   1.0000   1.0000
     1.0000   1.0000   1.0000   1.0000   1.0000   1.0000   1.0000   1.0000
     1.0000   1.0000   1.0000   1.0000   1.0000   1.0000   1.0000   1.0000
     0.0000   0.0000   0.0000   0.0000   0.0000   0.0000   0.0000   0.0000
     0.0000   0.0000

          k = 0.0000 0.4781 0.4675 ( 31259 PWs)   bands (ev):

   -82.9632 -82.9627 -82.9239 -82.9230 -49.1226 -49.1218 -49.1191 -49.1186
   -48.9464 -48.9458 -48.8529 -48.8522 -48.8443 -48.8433 -48.8360 -48.8349
   -42.7250 -15.4601 -15.3986 -15.2220 -15.1129 -14.7550 -14.7155 -14.6152
   -12.7078 -12.6646 -12.5454 -12.5258 -12.5032 -12.3985 -12.2952 -12.2348
   -12.2137 -12.0839 -12.0718 -12.0436  -2.4913  -2.1750  -1.8685  -1.5713
    -0.8430  -0.6474  -0.5904  -0.5210  -0.2586  -0.1902   0.0047   0.2194
     0.3038   0.4154   0.4484   0.5844   0.9373   1.1379   1.4081   1.5093
     1.6404   1.8065   1.8464   2.0246   2.0493   2.3272   2.5829   2.5896
     2.6461   2.6780   2.8916   3.0571   3.0587   3.1886   3.2714   3.3169
     3.3930   3.6335   3.7325   3.8287   3.8930   3.9136   4.0684   4.1214
     4.2727   4.4500   4.5567   4.5922   4.6616   4.8321   4.8718   4.9245
     4.9791   5.1280   5.4245   5.4856   5.6911   5.7499   5.8468   5.8852
     5.9024   5.9659   6.1939   6.3720   6.7974   7.0461   7.2387   7.2790
    13.1395  14.5316  14.8555  14.9886  15.3709  15.5722  15.6878  15.9287
    16.0942  16.2316

     occupation numbers 
     1.0000   1.0000   1.0000   1.0000   1.0000   1.0000   1.0000   1.0000
     1.0000   1.0000   1.0000   1.0000   1.0000   1.0000   1.0000   1.0000
     1.0000   1.0000   1.0000   1.0000   1.0000   1.0000   1.0000   1.0000
     1.0000   1.0000   1.0000   1.0000   1.0000   1.0000   1.0000   1.0000
     1.0000   1.0000   1.0000   1.0000   1.0000   1.0000   1.0000   1.0000
     1.0000   1.0000   1.0000   1.0000   1.0000   1.0000   1.0000   1.0000
     1.0000   1.0000   1.0000   1.0000   1.0000   1.0000   1.0000   1.0000
     1.0000   1.0000   1.0000   1.0000   1.0000   1.0000   1.0000   1.0000
     1.0000   1.0000   1.0000   1.0000   1.0000   1.0000   1.0000   1.0000
     1.0000   1.0000   1.0000   1.0000   1.0000   1.0000   1.0000   1.0000
     1.0000   1.0000   1.0000   1.0000   1.0000   1.0000   1.0000   1.0000
     1.0000   1.0000   1.0000   1.0000   1.0000   1.0000   1.0000   1.0000
     1.0000   1.0000   1.0000   1.0000   1.0000   1.0000   1.0000   1.0000
     0.0000   0.0000   0.0000   0.0000   0.0000   0.0000   0.0000   0.0000
     0.0000   0.0000

          k = 0.0000 0.4781 0.7012 ( 31288 PWs)   bands (ev):

[...]
     atom    6 type  4   force =    -0.00182780    0.00001586   -0.01245840
     atom    7 type  4   force =     0.00450265   -0.00148631   -0.00474410
     atom    8 type  4   force =     0.00182780   -0.00001586    0.01245840
     atom    9 type  4   force =    -0.00450265    0.00148631    0.00474410
     atom   10 type  3   force =    -0.02492538   -0.00160866    0.12513255
     atom   11 type  3   force =     0.01328101   -0.00136342    0.12928669
     atom   12 type  3   force =     0.02492538    0.00160866   -0.12513255
     atom   13 type  3   force =    -0.01328101    0.00136342   -0.12928669
     atom   14 type  3   force =    -0.11550345   -0.00040340    0.04587594
     atom   15 type  3   force =     0.10881899    0.00124024    0.05425250
     atom   16 type  3   force =     0.11550345    0.00040340   -0.04587594
     atom   17 type  3   force =    -0.10881899   -0.00124024   -0.05425250
     atom   18 type  3   force =     0.04583217    0.09972478   -0.05437958
     atom   19 type  3   force =    -0.04871260   -0.10060804   -0.06418633
     atom   20 type  3   force =    -0.04974170    0.10377493    0.05549793
     atom   21 type  3   force =     0.05332429   -0.10405082    0.05124197
     atom   22 type  3   force =    -0.04583217   -0.09972478    0.05437958
     atom   23 type  3   force =     0.04871260    0.10060804    0.06418633
     atom   24 type  3   force =     0.04974170   -0.10377493   -0.05549793
     atom   25 type  3   force =    -0.05332429    0.10405082   -0.05124197
     The non-local contrib.  to forces
     atom    1 type  2   force =     0.00000000    0.00000000    0.00000000
     atom    2 type  1   force =     0.09632068   -0.06138890    0.13244957
     atom    3 type  1   force =     0.08364188    0.00538240    0.10992394
     atom    4 type  1   force =    -0.09632068    0.06138890   -0.13244957
     atom    5 type  1   force =    -0.08364188   -0.00538240   -0.10992394
     atom    6 type  4   force =    -0.01097620    0.00520184   -0.05387163
     atom    7 type  4   force =     0.01906003    0.00341863   -0.03049449
     atom    8 type  4   force =     0.01097620   -0.00520184    0.05387163
     atom    9 type  4   force =    -0.01906003   -0.00341863    0.03049449
     atom   10 type  3   force =     0.28761189    0.02069093   -1.43722072
     atom   11 type  3   force =    -0.16420270    0.01442543   -1.41730507
     atom   12 type  3   force =    -0.28761189   -0.02069093    1.43722072
     atom   13 type  3   force =     0.16420270   -0.01442543    1.41730507
     atom   14 type  3   force =     1.16534232    0.01019534   -0.51278012
     atom   15 type  3   force =    -1.13693444   -0.01266735   -0.61428259
     atom   16 type  3   force =    -1.16534232   -0.01019534    0.51278012
     atom   17 type  3   force =     1.13693444    0.01266735    0.61428259
     atom   18 type  3   force =    -0.50645678   -1.03576461    0.69769376
     atom   19 type  3   force =     0.55914247    1.04844053    0.76716810
     atom   20 type  3   force =     0.54649561   -1.05997689   -0.70861963
     atom   21 type  3   force =    -0.60771772    1.05383572   -0.65435831
     atom   22 type  3   force =     0.50645678    1.03576461   -0.69769376
     atom   23 type  3   force =    -0.55914247   -1.04844053   -0.76716810
     atom   24 type  3   force =    -0.54649561    1.05997689    0.70861963
     atom   25 type  3   force =     0.60771772   -1.05383572    0.65435831
     The ionic contribution  to forces
     atom    1 type  2   force =    -0.00000653    0.00005907   -0.00004300
     atom    2 type  1   force =    -2.06944860    1.10287169   -0.71722597
     atom    3 type  1   force =   -10.54658544   -1.84019945   -0.68770934
     atom    4 type  1   force =     2.06918862   -1.10283677    0.71707739
     atom    5 type  1   force =    10.54669963    1.84046528    0.68765601
     atom    6 type  4   force =    -4.75982870    0.05434067    0.45474812
     atom    7 type  4   force =     1.55325659   -1.73271194    1.00424251
     atom    8 type  4   force =     4.75989030   -0.05434021   -0.45489041
     atom    9 type  4   force =    -1.55342175    1.73270321   -1.00386162
     atom   10 type  3   force =   -12.39965772   -0.09251777    3.07487748
     atom   11 type  3   force =     6.48433249   -2.80631227    2.06865493
     atom   12 type  3   force =    12.39984281    0.09249949   -3.07456415
     atom   13 type  3   force =    -6.48428433    2.80629630   -2.06906835
     atom   14 type  3   force =     0.54560988    2.85257109    4.39143893
     atom   15 type  3   force =    -3.20733442    0.10738989    6.98026854
     atom   16 type  3   force =    -0.54520007   -2.85257613   -4.39133064
     atom   17 type  3   force =     3.20718827   -0.10734582   -6.98023767
     atom   18 type  3   force =    -5.19609216    3.42796963   -2.91991833
     atom   19 type  3   force =     1.51263154   -2.92653787   -3.41583476
     atom   20 type  3   force =     5.69968235    3.58184247    3.07440062
     atom   21 type  3   force =     1.58653480   -3.20103085    0.78191803
     atom   22 type  3   force =     5.19608138   -3.42821588    2.91979473
     atom   23 type  3   force =    -1.51274953    2.92637490    3.41594562
     atom   24 type  3   force =    -5.69963017   -3.58182743   -3.07439408
     atom   25 type  3   force =    -1.58669922    3.20106871   -0.78194459
     The local contribution  to forces
     atom    1 type  2   force =    -0.00433335   -0.00170197   -0.00215867
     atom    2 type  1   force =     1.98124562   -1.05813985    0.58920064
     atom    3 type  1   force =    10.46301321    1.83165148    0.57852615
     atom    4 type  1   force =    -2.00246611    1.04752519   -0.59911325
     atom    5 type  1   force =   -10.48052610   -1.83981402   -0.58903572
     atom    6 type  4   force =     4.76751562   -0.05929466   -0.41674676
     atom    7 type  4   force =    -1.56621209    1.72736924   -0.97920282
     atom    8 type  4   force =    -4.76738772    0.05920812    0.41664387
     atom    9 type  4   force =     1.56631307   -1.72729433    0.97930830
     atom   10 type  3   force =    12.08828444    0.06907930   -1.52331545
     atom   11 type  3   force =    -6.31119070    2.78945085   -0.53430301
     atom   12 type  3   force =   -12.09173130   -0.07168578    1.52241672
     atom   13 type  3   force =     6.30623272   -2.79172609    0.53081613
     atom   14 type  3   force =    -1.81964229   -2.86436162   -3.83811622
     atom   15 type  3   force =     4.44340141   -0.09487182   -6.31808661
     atom   16 type  3   force =     1.81677678    2.86167797    3.83579666
     atom   17 type  3   force =    -4.44672278    0.09224112    6.31522929
     atom   18 type  3   force =     5.74210651   -2.30101569    2.17199110
     atom   19 type  3   force =    -2.11890105    1.78379957    2.58945275
     atom   20 type  3   force =    -6.29462229   -2.42694080   -2.31719996
     atom   21 type  3   force =    -0.93245030    2.04978128   -0.08251610
     atom   22 type  3   force =    -5.74736351    2.29910141   -2.17436928
     atom   23 type  3   force =     2.11408650   -1.78600245   -2.59159274
     atom   24 type  3   force =     6.28920808    2.42449496    2.31432417
     atom   25 type  3   force =     0.92751688   -2.05188178    0.08039788
     The core correction contribution to forces
     atom    1 type  2   force =     0.00000000    0.00000000    0.00000000
     atom    2 type  1   force =    -0.00189459    0.00111394   -0.00055015
     atom    3 type  1   force =    -0.00040762   -0.00008704    0.00073881
     atom    4 type  1   force =     0.00262304   -0.00075309    0.00088119
     atom    5 type  1   force =     0.00100153    0.00038121   -0.00039243
     atom    6 type  4   force =     0.00156531   -0.00027206    0.00329430
     atom    7 type  4   force =    -0.00162195    0.00047467    0.00095564
     atom    8 type  4   force =    -0.00154730    0.00027846   -0.00328436
     atom    9 type  4   force =     0.00164226   -0.00046670   -0.00095250
     atom   10 type  3   force =    -0.00279942   -0.00017455    0.01049688
     atom   11 type  3   force =     0.00188948   -0.00007405    0.01028780
     atom   12 type  3   force =     0.00279555    0.00017287   -0.01049944
     atom   13 type  3   force =    -0.00189312    0.00007237   -0.01029090
     atom   14 type  3   force =    -0.00804081   -0.00015339    0.00422547
     atom   15 type  3   force =     0.00794795    0.00009542    0.00494058
     atom   16 type  3   force =     0.00803584    0.00015158   -0.00422693
     atom   17 type  3   force =    -0.00795351   -0.00009721   -0.00494221
     atom   18 type  3   force =     0.00363858    0.00745292   -0.00539674
     atom   19 type  3   force =    -0.00405072   -0.00749451   -0.00598930
     atom   20 type  3   force =    -0.00397997    0.00763419    0.00548179
     atom   21 type  3   force =     0.00440379   -0.00766866    0.00512333
     atom   22 type  3   force =    -0.00364229   -0.00745692    0.00539562
     atom   23 type  3   force =     0.00404585    0.00749091    0.00598623
     atom   24 type  3   force =     0.00397705   -0.00763565   -0.00548245
     atom   25 type  3   force =    -0.00440763    0.00766687   -0.00512707
     The Hubbard contrib.    to forces
     atom    1 type  2   force =     0.00000000    0.00000000    0.00000000
     atom    2 type  1   force =     0.00000000    0.00000000    0.00000000
     atom    3 type  1   force =     0.00000000    0.00000000    0.00000000
     atom    4 type  1   force =     0.00000000    0.00000000    0.00000000
     atom    5 type  1   force =     0.00000000    0.00000000    0.00000000
     atom    6 type  4   force =     0.00000000    0.00000000    0.00000000
     atom    7 type  4   force =     0.00000000    0.00000000    0.00000000
     atom    8 type  4   force =     0.00000000    0.00000000    0.00000000
     atom    9 type  4   force =     0.00000000    0.00000000    0.00000000
     atom   10 type  3   force =     0.00000000    0.00000000    0.00000000
     atom   11 type  3   force =     0.00000000    0.00000000    0.00000000
     atom   12 type  3   force =     0.00000000    0.00000000    0.00000000
     atom   13 type  3   force =     0.00000000    0.00000000    0.00000000
     atom   14 type  3   force =     0.00000000    0.00000000    0.00000000
     atom   15 type  3   force =     0.00000000    0.00000000    0.00000000
     atom   16 type  3   force =     0.00000000    0.00000000    0.00000000
     atom   17 type  3   force =     0.00000000    0.00000000    0.00000000
     atom   18 type  3   force =     0.00000000    0.00000000    0.00000000
     atom   19 type  3   force =     0.00000000    0.00000000    0.00000000
     atom   20 type  3   force =     0.00000000    0.00000000    0.00000000
     atom   21 type  3   force =     0.00000000    0.00000000    0.00000000
     atom   22 type  3   force =     0.00000000    0.00000000    0.00000000
     atom   23 type  3   force =     0.00000000    0.00000000    0.00000000
     atom   24 type  3   force =     0.00000000    0.00000000    0.00000000
     atom   25 type  3   force =     0.00000000    0.00000000    0.00000000
     The SCF correction term to forces
     atom    1 type  2   force =     0.00000000   -0.00000000   -0.00000000
     atom    2 type  1   force =    -0.00001138    0.00000112   -0.00000086
     atom    3 type  1   force =    -0.00001169   -0.00000018   -0.00000413
     atom    4 type  1   force =     0.00001138   -0.00000112    0.00000086
     atom    5 type  1   force =     0.00001169    0.00000018    0.00000413
     atom    6 type  4   force =    -0.00000008    0.00000023   -0.00000005
     atom    7 type  4   force =    -0.00000186    0.00000016   -0.00000018
     atom    8 type  4   force =     0.00000008   -0.00000023    0.00000005
     atom    9 type  4   force =     0.00000186   -0.00000016    0.00000018
     atom   10 type  3   force =     0.00000261    0.00000021    0.00000038
     atom   11 type  3   force =    -0.00000428    0.00000017    0.00000035
     atom   12 type  3   force =    -0.00000261   -0.00000021   -0.00000038
     atom   13 type  3   force =     0.00000428   -0.00000017   -0.00000035
     atom   14 type  3   force =    -0.00000289   -0.00000007    0.00000152
     atom   15 type  3   force =     0.00000195   -0.00000010   -0.00000146
     atom   16 type  3   force =     0.00000289    0.00000007   -0.00000152
     atom   17 type  3   force =    -0.00000195    0.00000010    0.00000146
     atom   18 type  3   force =     0.00000027    0.00000027   -0.00000082
     atom   19 type  3   force =    -0.00000354   -0.00000048    0.00000078
     atom   20 type  3   force =     0.00000013   -0.00000017    0.00000016
     atom   21 type  3   force =     0.00000288   -0.00000053    0.00000077
     atom   22 type  3   force =    -0.00000027   -0.00000027    0.00000082
     atom   23 type  3   force =     0.00000355    0.00000048   -0.00000078
     atom   24 type  3   force =    -0.00000013    0.00000017   -0.00000016
     atom   25 type  3   force =    -0.00000288    0.00000053   -0.00000077

     Total force =     0.506787     Total SCF correction =     0.000027


     Computing stress (Cartesian axis) and pressure


     negative rho (up, down):  0.000E+00 1.016E-03
          total   stress  (Ry/bohr**3)                   (kbar)     P=      294.43
   0.00211888   0.00008037  -0.00004038          311.70       11.82       -5.94
   0.00008037   0.00175784  -0.00002508           11.82      258.59       -3.69
  -0.00004038  -0.00002508   0.00212776           -5.94       -3.69      313.00

     kinetic stress (kbar)  31471.66    -17.51      1.20
                              -17.51  31660.08     -0.54
                                1.20     -0.54  31438.86

     local   stress (kbar)  -3294.30  -3385.09   1088.88
                            -3385.09 -15627.67   1169.80
                             1088.88   1169.80  -6768.56

     nonloc. stress (kbar)  -8098.74     -2.46     -0.24
                               -2.46  -8013.60      3.29
                               -0.24      3.29  -7992.54

     hartree stress (kbar)  13901.61   1343.79   -409.93
                             1343.79  20525.98   -464.81
                             -409.93   -464.81  16245.46

     exc-cor stress (kbar)  -3319.65      2.03     -0.88
                                2.03  -3327.80     -0.50
                               -0.88     -0.50  -3326.16

     corecor stress (kbar)  -3641.36     -0.86      0.72
                               -0.86  -3639.11     -0.06
                                0.72     -0.06  -3642.44

     ewald   stress (kbar) -26707.52   2071.92   -685.69
                             2071.92 -21319.28   -710.87
                             -685.69   -710.87 -25641.62

     hubbard stress (kbar)      0.00      0.00      0.00
                                0.00      0.00      0.00
                                0.00      0.00      0.00

     DFT-D   stress (kbar)      0.00      0.00      0.00
                                0.00      0.00      0.00
                                0.00      0.00      0.00

     XDM     stress (kbar)      0.00      0.00      0.00
                                0.00      0.00      0.00
                                0.00      0.00      0.00

     dft-nl  stress (kbar)      0.00      0.00      0.00
                                0.00      0.00      0.00
                                0.00      0.00      0.00

     TS-vdW  stress (kbar)      0.00      0.00      0.00
                                0.00      0.00      0.00
                                0.00      0.00      0.00



     init_run     :    279.73s CPU    299.23s WALL (       1 calls)
     electrons    :  18122.83s CPU  18889.43s WALL (       1 calls)
     forces       :    185.03s CPU    187.51s WALL (       1 calls)
     stress       :   1366.10s CPU   1384.12s WALL (       1 calls)

     Called by init_run:
     wfcinit      :    265.53s CPU    281.92s WALL (       1 calls)
     wfcinit:atom :      5.73s CPU      5.84s WALL (     316 calls)
     wfcinit:wfcr :    245.21s CPU    261.23s WALL (     316 calls)
     potinit      :      5.25s CPU      5.83s WALL (       1 calls)
     hinit0       :      5.02s CPU      6.54s WALL (       1 calls)

     Called by electrons:
     c_bands      :  16378.23s CPU  16997.22s WALL (      21 calls)
     sum_band     :   1630.57s CPU   1758.23s WALL (      21 calls)
     v_of_rho     :     30.65s CPU     31.95s WALL (      22 calls)
     v_h          :      1.49s CPU      1.56s WALL (      22 calls)
     v_xc         :     31.73s CPU     33.08s WALL (      24 calls)
     newd         :     60.82s CPU     79.82s WALL (      22 calls)
     PAW_pot      :     17.64s CPU     17.86s WALL (      22 calls)
     mix_rho      :      6.72s CPU      7.07s WALL (      21 calls)

     Called by c_bands:
     init_us_2    :    263.35s CPU    267.95s WALL (   14220 calls)
     cegterg      :  15962.91s CPU  16575.84s WALL (    6636 calls)

     Called by sum_band:
     sum_band:wei :      0.33s CPU      0.33s WALL (      21 calls)
     sum_band:loo :   1452.57s CPU   1556.22s WALL (      21 calls)
     sum_band:buf :     68.71s CPU     69.71s WALL (    6636 calls)
     sum_band:ini :    124.38s CPU    126.30s WALL (    6636 calls)
     sum_band:cal :    726.02s CPU    731.46s WALL (    6636 calls)
     sum_band:bec :      3.47s CPU      3.57s WALL (    6636 calls)
     addusdens    :    173.53s CPU    197.08s WALL (      21 calls)
     addusd:skk   :      0.98s CPU      1.01s WALL (      63 calls)
     addusd:dgemm :     60.69s CPU     80.60s WALL (     126 calls)
     addusd:qvan2 :    109.99s CPU    110.79s WALL (     126 calls)

     Called by *egterg:
     cdiaghg      :    720.12s CPU    738.63s WALL (   33086 calls)
     cegterg:over :   1755.94s CPU   1775.30s WALL (   26450 calls)
     cegterg:upda :   1179.98s CPU   1185.02s WALL (   26450 calls)
     cegterg:last :   2329.23s CPU   2339.03s WALL (   13329 calls)
     h_psi        :   7106.13s CPU   7663.56s WALL (   33402 calls)
     s_psi        :   2084.65s CPU   2092.86s WALL (   33402 calls)
     g_psi        :     28.68s CPU     28.97s WALL (   26450 calls)

     Called by h_psi:
     h_psi:calbec :   2158.63s CPU   2177.13s WALL (   33402 calls)
     vloc_psi     :   2598.86s CPU   3124.43s WALL (   33402 calls)
     add_vuspsi   :   2176.02s CPU   2184.87s WALL (   33402 calls)

     General routines
     calbec       :   3058.07s CPU   3083.64s WALL (   41618 calls)
     fft          :     25.97s CPU     28.27s WALL (     588 calls)
     ffts         :      0.24s CPU      0.30s WALL (      86 calls)
     fftw         :   2879.39s CPU   3464.48s WALL ( 4547192 calls)
     interpolate  :      2.32s CPU      2.49s WALL (      44 calls)

     Parallel routines
     fft_scatt_xy :    242.01s CPU    300.28s WALL ( 4547866 calls)
     fft_scatt_yz :   1202.25s CPU   1488.12s WALL ( 4547866 calls)

     PAW routines
     PAW_pot      :     17.64s CPU     17.86s WALL (      22 calls)
     PAW_symme    :      0.05s CPU      0.05s WALL (      43 calls)

     PWSCF        :      5h32m CPU      5h46m WALL


   This run was terminated on:  21: 8:22  23Dec2022            

=------------------------------------------------------------------------------=
   JOB DONE.
=------------------------------------------------------------------------------=
Note: The following floating-point exceptions are signalling: IEEE_UNDERFLOW_FLAG IEEE_DENORMAL
Note: The following floating-point exceptions are signalling: IEEE_DENORMAL
Note: The following floating-point exceptions are signalling: IEEE_DENORMAL
Note: The following floating-point exceptions are signalling: IEEE_DENORMAL
Note: The following floating-point exceptions are signalling: IEEE_DENORMAL
Note: The following floating-point exceptions are signalling: IEEE_DENORMAL
