
     Program PWSCF v.6.7MaX starts on 20Dec2022 at 16:57: 1 

     This program is part of the open-source Quantum ESPRESSO suite
     for quantum simulation of materials; please cite
         "P. Giannozzi et al., J. Phys.:Condens. Matter 21 395502 (2009);
         "P. Giannozzi et al., J. Phys.:Condens. Matter 29 465901 (2017);
          URL http://www.quantum-espresso.org", 
     in publications or presentations arising from this work. More details at
     http://www.quantum-espresso.org/quote

     Parallel version (MPI), running on    12 processors

     MPI processes distributed on     1 nodes
     R & G space division:  proc/nbgrp/npool/nimage =      12
     Reading input from scale_2dab-03.in

     Current dimensions of program PWSCF are:
     Max number of different atomic species (ntypx) = 10
     Max number of k-points (npk) =  40000
     Max angular momentum in pseudopotentials (lmaxx) =  3
     Message from routine read_pp_mesh:
     mesh size missing, using the one in header
     file Fe.pbe-spn-kjpaw_psl.0.2.1.UPF: wavefunction(s)  3D renormalized
     file O.pbe-n-kjpaw_psl.0.1.UPF: wavefunction(s)  2P renormalized

     Subspace diagonalization in iterative solution of the eigenvalue problem:
     a serial algorithm will be used

     Message from routine setup:
     using ibrav=0 with symmetry is DISCOURAGED, use correct ibrav instead

     Parallelization info
     --------------------
     sticks:   dense  smooth     PW     G-vecs:    dense   smooth      PW
     Min        1710     633    170               111526    25140    3532
     Max        1711     634    171               111528    25141    3535
     Sum       20521    7599   2049              1338317   301689   42399



     bravais-lattice index     =            0
     lattice parameter (alat)  =      19.9928  a.u.
     unit-cell volume          =    2232.9698 (a.u.)^3
     number of atoms/cell      =           25
     number of atomic types    =            4
     number of electrons       =       189.00
     number of Kohn-Sham states=          114
     kinetic-energy cutoff     =     100.0000  Ry
     charge density cutoff     =    1080.0000  Ry
     scf convergence threshold =      2.0E-10
     mixing beta               =       0.4000
     number of iterations used =            8  plain     mixing
     Exchange-correlation= PBE
                           (   1   4   3   4   0   0   0)

     celldm(1)=  19.992808  celldm(2)=   0.000000  celldm(3)=   0.000000
     celldm(4)=   0.000000  celldm(5)=   0.000000  celldm(6)=   0.000000

     crystal axes: (cart. coord. in units of alat)
               a(1) = (   1.000000   0.000000   0.000000 )  
               a(2) = (   0.000000   0.597590   0.000000 )  
               a(3) = (   0.000000   0.000000   0.467582 )  

     reciprocal axes: (cart. coord. in units 2 pi/alat)
               b(1) = (  1.000000  0.000000  0.000000 )  
               b(2) = (  0.000000  1.673388  0.000000 )  
               b(3) = (  0.000000  0.000000  2.138660 )  


     PseudoPot. # 1 for Fe read from file:
     /opt/QEpot/SSSP_precision_pseudos/Fe.pbe-spn-kjpaw_psl.0.2.1.UPF
     MD5 check sum: e86618425769142926afa95317d90200
     Pseudo is Projector augmented-wave + core cor, Zval = 16.0
     Generated using "atomic" code by A. Dal Corso  v.5.0.99 svn rev. 10869
     Shape of augmentation charge: PSQ
     Using radial grid of 1191 points,  6 beta functions with: 
                l(1) =   0
                l(2) =   0
                l(3) =   1
                l(4) =   1
                l(5) =   2
                l(6) =   2
     Q(r) pseudized with 0 coefficients 


     PseudoPot. # 2 for Na read from file:
     /opt/QEpot/SSSP_precision_pseudos/Na_ONCV_PBE-1.0.oncvpsp.upf
     MD5 check sum: 24a298df0a6742ae313db96548fdb2a4
     Pseudo is Norm-conserving, Zval =  9.0
     Generated using ONCVPSP code by D. R. Hamann
     Using radial grid of 1992 points,  4 beta functions with: 
                l(1) =   0
                l(2) =   0
                l(3) =   1
                l(4) =   1

     PseudoPot. # 3 for O  read from file:
     /opt/QEpot/SSSP_precision_pseudos/O.pbe-n-kjpaw_psl.0.1.UPF
     MD5 check sum: 0234752ac141de4415c5fc33072bef88
     Pseudo is Projector augmented-wave + core cor, Zval =  6.0
     Generated using "atomic" code by A. Dal Corso  v.5.0.99 svn rev. 10869
     Shape of augmentation charge: BESSEL
     Using radial grid of 1095 points,  4 beta functions with: 
                l(1) =   0
                l(2) =   0
                l(3) =   1
                l(4) =   1
     Q(r) pseudized with 0 coefficients 


     PseudoPot. # 4 for P  read from file:
     /opt/QEpot/SSSP_precision_pseudos/P.pbe-n-rrkjus_psl.1.0.0.UPF
     MD5 check sum: 8b930f418f0a4573dca56cd030ffe088
     Pseudo is Ultrasoft + core correction, Zval =  5.0
     Generated using "atomic" code by A. Dal Corso  v.5.1
     Using radial grid of 1147 points,  6 beta functions with: 
                l(1) =   0
                l(2) =   0
                l(3) =   1
                l(4) =   1
                l(5) =   2
                l(6) =   2
     Q(r) pseudized with 0 coefficients 


     atomic species   valence    mass     pseudopotential
        Fe            16.00    55.84500     Fe( 1.00)
        Na             9.00    22.98977     Na( 1.00)
        O              6.00    15.99940     O ( 1.00)
        P              5.00    30.97376     P ( 1.00)

     Starting magnetic structure 
     atomic species   magnetization
        Fe           0.312
        Na           0.000
        O            0.000
        P            0.000

      2 Sym. Ops., with inversion, found


                                    s                        frac. trans.

      isym =  1     identity                                     

 cryst.   s( 1) = (     1          0          0      )
                  (     0          1          0      )
                  (     0          0          1      )

 cart.    s( 1) = (  1.0000000  0.0000000  0.0000000 )
                  (  0.0000000  1.0000000  0.0000000 )
                  (  0.0000000  0.0000000  1.0000000 )


      isym =  2     inversion                                    

 cryst.   s( 2) = (    -1          0          0      )
                  (     0         -1          0      )
                  (     0          0         -1      )

 cart.    s( 2) = ( -1.0000000  0.0000000  0.0000000 )
                  (  0.0000000 -1.0000000  0.0000000 )
                  (  0.0000000  0.0000000 -1.0000000 )


   Cartesian axes

     site n.     atom                  positions (alat units)
         1           Na  tau(   1) = (   0.5000030   0.2987962   0.2337926  )
         2           Fe  tau(   2) = (   0.2766340   0.4509067   0.4654980  )
         3           Fe  tau(   3) = (   0.2132450   0.1472796   0.2291407  )
         4           Fe  tau(   4) = (   0.7233720   0.1466862   0.0020873  )
         5           Fe  tau(   5) = (   0.7867600   0.4503127   0.2384446  )
         6           P   tau(   6) = (   0.1084050   0.4475052   0.2081195  )
         7           P   tau(   7) = (   0.3919000   0.1469754   0.4420211  )
         8           P   tau(   8) = (   0.8916010   0.1500877   0.2594662  )
         9           P   tau(   9) = (   0.6081070   0.4506175   0.0255623  )
        10           O   tau(  10) = (   0.1318760   0.4471825   0.3518740  )
        11           O   tau(  11) = (   0.3711480   0.1517090   0.1189352  )
        12           O   tau(  12) = (   0.8681290   0.1504104   0.1157108  )
        13           O   tau(  13) = (   0.6288580   0.4458840   0.3486515  )
        14           O   tau(  14) = (   0.4620270   0.4452021   0.0574084  )
        15           O   tau(  15) = (   0.0373160   0.1503453   0.2879607  )
        16           O   tau(  16) = (   0.5379780   0.1523908   0.4101769  )
        17           O   tau(  17) = (   0.9626900   0.4472477   0.1796246  )
        18           O   tau(  18) = (   0.1786770   0.5646908   0.1419730  )
        19           O   tau(  19) = (   0.3223210   0.0298072   0.3780647  )
        20           O   tau(  20) = (   0.8194080   0.2651781   0.3264137  )
        21           O   tau(  21) = (   0.6766380   0.3344526   0.0957113  )
        22           O   tau(  22) = (   0.8213290   0.0329027   0.3256123  )
        23           O   tau(  23) = (   0.6776850   0.5677863   0.0895205  )
        24           O   tau(  24) = (   0.1805980   0.3324148   0.1411716  )
        25           O   tau(  25) = (   0.3233680   0.2631404   0.3718744  )

   Crystallographic axes

     site n.     atom                  positions (cryst. coord.)
         1           Na  tau(   1) = (  0.5000030  0.5000020  0.5000030  )
         2           Fe  tau(   2) = (  0.2766340  0.7545420  0.9955420  )
         3           Fe  tau(   3) = (  0.2132450  0.2464560  0.4900540  )
         4           Fe  tau(   4) = (  0.7233720  0.2454630  0.0044640  )
         5           Fe  tau(   5) = (  0.7867600  0.7535480  0.5099520  )
         6           P   tau(   6) = (  0.1084050  0.7488500  0.4450970  )
         7           P   tau(   7) = (  0.3919000  0.2459470  0.9453330  )
         8           P   tau(   8) = (  0.8916010  0.2511550  0.5549100  )
         9           P   tau(   9) = (  0.6081070  0.7540580  0.0546690  )
        10           O   tau(  10) = (  0.1318760  0.7483100  0.7525390  )
        11           O   tau(  11) = (  0.3711480  0.2538680  0.2543620  )
        12           O   tau(  12) = (  0.8681290  0.2516950  0.2474660  )
        13           O   tau(  13) = (  0.6288580  0.7461370  0.7456470  )
        14           O   tau(  14) = (  0.4620270  0.7449960  0.1227770  )
        15           O   tau(  15) = (  0.0373160  0.2515860  0.6158500  )
        16           O   tau(  16) = (  0.5379780  0.2550090  0.8772290  )
        17           O   tau(  17) = (  0.9626900  0.7484190  0.3841560  )
        18           O   tau(  18) = (  0.1786770  0.9449470  0.3036320  )
        19           O   tau(  19) = (  0.3223210  0.0498790  0.8085520  )
        20           O   tau(  20) = (  0.8194080  0.4437460  0.6980880  )
        21           O   tau(  21) = (  0.6766380  0.5596690  0.2046940  )
        22           O   tau(  22) = (  0.8213290  0.0550590  0.6963740  )
        23           O   tau(  23) = (  0.6776850  0.9501270  0.1914540  )
        24           O   tau(  24) = (  0.1805980  0.5562590  0.3019180  )
        25           O   tau(  25) = (  0.3233680  0.4403360  0.7953130  )

     number of k points=   158  Marzari-Vanderbilt smearing, width (Ry)=  0.0073
                       cart. coord. in units 2pi/alat
        k(    1) = (   0.0000000   0.0000000   0.0000000), wk =   0.0031746
        k(    2) = (   0.0000000   0.0000000   0.2376289), wk =   0.0063492
        k(    3) = (   0.0000000   0.0000000   0.4752578), wk =   0.0063492
        k(    4) = (   0.0000000   0.0000000   0.7128867), wk =   0.0063492
        k(    5) = (   0.0000000   0.0000000   0.9505157), wk =   0.0063492
        k(    6) = (   0.0000000   0.2390555   0.0000000), wk =   0.0063492
        k(    7) = (   0.0000000   0.2390555   0.2376289), wk =   0.0063492
        k(    8) = (   0.0000000   0.2390555   0.4752578), wk =   0.0063492
        k(    9) = (   0.0000000   0.2390555   0.7128867), wk =   0.0063492
        k(   10) = (   0.0000000   0.2390555   0.9505157), wk =   0.0063492
        k(   11) = (   0.0000000   0.4781110   0.0000000), wk =   0.0063492
        k(   12) = (   0.0000000   0.4781110   0.2376289), wk =   0.0063492
        k(   13) = (   0.0000000   0.4781110   0.4752578), wk =   0.0063492
        k(   14) = (   0.0000000   0.4781110   0.7128867), wk =   0.0063492
        k(   15) = (   0.0000000   0.4781110   0.9505157), wk =   0.0063492
        k(   16) = (   0.0000000   0.7171664   0.0000000), wk =   0.0063492
        k(   17) = (   0.0000000   0.7171664   0.2376289), wk =   0.0063492
        k(   18) = (   0.0000000   0.7171664   0.4752578), wk =   0.0063492
        k(   19) = (   0.0000000   0.7171664   0.7128867), wk =   0.0063492
        k(   20) = (   0.0000000   0.7171664   0.9505157), wk =   0.0063492
        k(   21) = (   0.2000000   0.0000000   0.0000000), wk =   0.0063492
        k(   22) = (   0.2000000   0.0000000   0.2376289), wk =   0.0063492
        k(   23) = (   0.2000000   0.0000000   0.4752578), wk =   0.0063492
        k(   24) = (   0.2000000   0.0000000   0.7128867), wk =   0.0063492
        k(   25) = (   0.2000000   0.0000000   0.9505157), wk =   0.0063492
        k(   26) = (   0.2000000   0.2390555   0.0000000), wk =   0.0063492
        k(   27) = (   0.2000000   0.2390555   0.2376289), wk =   0.0063492
        k(   28) = (   0.2000000   0.2390555   0.4752578), wk =   0.0063492
        k(   29) = (   0.2000000   0.2390555   0.7128867), wk =   0.0063492
        k(   30) = (   0.2000000   0.2390555   0.9505157), wk =   0.0063492
        k(   31) = (   0.2000000   0.4781110   0.0000000), wk =   0.0063492
        k(   32) = (   0.2000000   0.4781110   0.2376289), wk =   0.0063492
        k(   33) = (   0.2000000   0.4781110   0.4752578), wk =   0.0063492
        k(   34) = (   0.2000000   0.4781110   0.7128867), wk =   0.0063492
        k(   35) = (   0.2000000   0.4781110   0.9505157), wk =   0.0063492
        k(   36) = (   0.2000000   0.7171664   0.0000000), wk =   0.0063492
        k(   37) = (   0.2000000   0.7171664   0.2376289), wk =   0.0063492
        k(   38) = (   0.2000000   0.7171664   0.4752578), wk =   0.0063492
        k(   39) = (   0.2000000   0.7171664   0.7128867), wk =   0.0063492
        k(   40) = (   0.2000000   0.7171664   0.9505157), wk =   0.0063492
        k(   41) = (   0.4000000   0.0000000   0.0000000), wk =   0.0063492
        k(   42) = (   0.4000000   0.0000000   0.2376289), wk =   0.0063492
        k(   43) = (   0.4000000   0.0000000   0.4752578), wk =   0.0063492
        k(   44) = (   0.4000000   0.0000000   0.7128867), wk =   0.0063492
        k(   45) = (   0.4000000   0.0000000   0.9505157), wk =   0.0063492
        k(   46) = (   0.4000000   0.2390555   0.0000000), wk =   0.0063492
        k(   47) = (   0.4000000   0.2390555   0.2376289), wk =   0.0063492
        k(   48) = (   0.4000000   0.2390555   0.4752578), wk =   0.0063492
        k(   49) = (   0.4000000   0.2390555   0.7128867), wk =   0.0063492
        k(   50) = (   0.4000000   0.2390555   0.9505157), wk =   0.0063492
        k(   51) = (   0.4000000   0.4781110   0.0000000), wk =   0.0063492
        k(   52) = (   0.4000000   0.4781110   0.2376289), wk =   0.0063492
        k(   53) = (   0.4000000   0.4781110   0.4752578), wk =   0.0063492
        k(   54) = (   0.4000000   0.4781110   0.7128867), wk =   0.0063492
        k(   55) = (   0.4000000   0.4781110   0.9505157), wk =   0.0063492
        k(   56) = (   0.4000000   0.7171664   0.0000000), wk =   0.0063492
        k(   57) = (   0.4000000   0.7171664   0.2376289), wk =   0.0063492
        k(   58) = (   0.4000000   0.7171664   0.4752578), wk =   0.0063492
        k(   59) = (   0.4000000   0.7171664   0.7128867), wk =   0.0063492
        k(   60) = (   0.4000000   0.7171664   0.9505157), wk =   0.0063492
        k(   61) = (   0.0000000   0.2390555  -0.2376289), wk =   0.0063492
        k(   62) = (   0.0000000   0.2390555  -0.4752578), wk =   0.0063492
        k(   63) = (   0.0000000   0.2390555  -0.7128867), wk =   0.0063492
        k(   64) = (   0.0000000   0.2390555  -0.9505157), wk =   0.0063492
        k(   65) = (   0.0000000   0.4781110  -0.2376289), wk =   0.0063492
        k(   66) = (   0.0000000   0.4781110  -0.4752578), wk =   0.0063492
        k(   67) = (   0.0000000   0.4781110  -0.7128867), wk =   0.0063492
        k(   68) = (   0.0000000   0.4781110  -0.9505157), wk =   0.0063492
        k(   69) = (   0.0000000   0.7171664  -0.2376289), wk =   0.0063492
        k(   70) = (   0.0000000   0.7171664  -0.4752578), wk =   0.0063492
        k(   71) = (   0.0000000   0.7171664  -0.7128867), wk =   0.0063492
        k(   72) = (   0.0000000   0.7171664  -0.9505157), wk =   0.0063492
        k(   73) = (   0.2000000   0.0000000  -0.2376289), wk =   0.0063492
        k(   74) = (   0.2000000   0.0000000  -0.4752578), wk =   0.0063492
        k(   75) = (   0.2000000   0.0000000  -0.7128867), wk =   0.0063492
        k(   76) = (   0.2000000   0.0000000  -0.9505157), wk =   0.0063492
        k(   77) = (  -0.2000000   0.2390555   0.0000000), wk =   0.0063492
        k(   78) = (  -0.2000000   0.2390555  -0.2376289), wk =   0.0063492
        k(   79) = (   0.2000000  -0.2390555  -0.2376289), wk =   0.0063492
        k(   80) = (  -0.2000000  -0.2390555   0.2376289), wk =   0.0063492
        k(   81) = (  -0.2000000   0.2390555  -0.4752578), wk =   0.0063492
        k(   82) = (   0.2000000  -0.2390555  -0.4752578), wk =   0.0063492
        k(   83) = (  -0.2000000  -0.2390555   0.4752578), wk =   0.0063492
        k(   84) = (  -0.2000000   0.2390555  -0.7128867), wk =   0.0063492
        k(   85) = (   0.2000000  -0.2390555  -0.7128867), wk =   0.0063492
        k(   86) = (  -0.2000000  -0.2390555   0.7128867), wk =   0.0063492
        k(   87) = (  -0.2000000   0.2390555  -0.9505157), wk =   0.0063492
        k(   88) = (   0.2000000  -0.2390555  -0.9505157), wk =   0.0063492
        k(   89) = (  -0.2000000  -0.2390555   0.9505157), wk =   0.0063492
        k(   90) = (  -0.2000000   0.4781110   0.0000000), wk =   0.0063492
        k(   91) = (  -0.2000000   0.4781110  -0.2376289), wk =   0.0063492
        k(   92) = (   0.2000000  -0.4781110  -0.2376289), wk =   0.0063492
        k(   93) = (  -0.2000000  -0.4781110   0.2376289), wk =   0.0063492
        k(   94) = (  -0.2000000   0.4781110  -0.4752578), wk =   0.0063492
        k(   95) = (   0.2000000  -0.4781110  -0.4752578), wk =   0.0063492
        k(   96) = (  -0.2000000  -0.4781110   0.4752578), wk =   0.0063492
        k(   97) = (  -0.2000000   0.4781110  -0.7128867), wk =   0.0063492
        k(   98) = (   0.2000000  -0.4781110  -0.7128867), wk =   0.0063492
        k(   99) = (  -0.2000000  -0.4781110   0.7128867), wk =   0.0063492
        k(  100) = (  -0.2000000   0.4781110  -0.9505157), wk =   0.0063492
        k(  101) = (   0.2000000  -0.4781110  -0.9505157), wk =   0.0063492
        k(  102) = (  -0.2000000  -0.4781110   0.9505157), wk =   0.0063492
        k(  103) = (  -0.2000000   0.7171664   0.0000000), wk =   0.0063492
        k(  104) = (  -0.2000000   0.7171664  -0.2376289), wk =   0.0063492
        k(  105) = (   0.2000000  -0.7171664  -0.2376289), wk =   0.0063492
        k(  106) = (  -0.2000000  -0.7171664   0.2376289), wk =   0.0063492
        k(  107) = (  -0.2000000   0.7171664  -0.4752578), wk =   0.0063492
        k(  108) = (   0.2000000  -0.7171664  -0.4752578), wk =   0.0063492
        k(  109) = (  -0.2000000  -0.7171664   0.4752578), wk =   0.0063492
        k(  110) = (  -0.2000000   0.7171664  -0.7128867), wk =   0.0063492
        k(  111) = (   0.2000000  -0.7171664  -0.7128867), wk =   0.0063492
        k(  112) = (  -0.2000000  -0.7171664   0.7128867), wk =   0.0063492
        k(  113) = (  -0.2000000   0.7171664  -0.9505157), wk =   0.0063492
        k(  114) = (   0.2000000  -0.7171664  -0.9505157), wk =   0.0063492
        k(  115) = (  -0.2000000  -0.7171664   0.9505157), wk =   0.0063492
        k(  116) = (   0.4000000   0.0000000  -0.2376289), wk =   0.0063492
        k(  117) = (   0.4000000   0.0000000  -0.4752578), wk =   0.0063492
        k(  118) = (   0.4000000   0.0000000  -0.7128867), wk =   0.0063492
        k(  119) = (   0.4000000   0.0000000  -0.9505157), wk =   0.0063492
        k(  120) = (  -0.4000000   0.2390555   0.0000000), wk =   0.0063492
        k(  121) = (  -0.4000000   0.2390555  -0.2376289), wk =   0.0063492
        k(  122) = (   0.4000000  -0.2390555  -0.2376289), wk =   0.0063492
        k(  123) = (  -0.4000000  -0.2390555   0.2376289), wk =   0.0063492
        k(  124) = (  -0.4000000   0.2390555  -0.4752578), wk =   0.0063492
        k(  125) = (   0.4000000  -0.2390555  -0.4752578), wk =   0.0063492
        k(  126) = (  -0.4000000  -0.2390555   0.4752578), wk =   0.0063492
        k(  127) = (  -0.4000000   0.2390555  -0.7128867), wk =   0.0063492
        k(  128) = (   0.4000000  -0.2390555  -0.7128867), wk =   0.0063492
        k(  129) = (  -0.4000000  -0.2390555   0.7128867), wk =   0.0063492
        k(  130) = (  -0.4000000   0.2390555  -0.9505157), wk =   0.0063492
        k(  131) = (   0.4000000  -0.2390555  -0.9505157), wk =   0.0063492
        k(  132) = (  -0.4000000  -0.2390555   0.9505157), wk =   0.0063492
        k(  133) = (  -0.4000000   0.4781110   0.0000000), wk =   0.0063492
        k(  134) = (  -0.4000000   0.4781110  -0.2376289), wk =   0.0063492
        k(  135) = (   0.4000000  -0.4781110  -0.2376289), wk =   0.0063492
        k(  136) = (  -0.4000000  -0.4781110   0.2376289), wk =   0.0063492
        k(  137) = (  -0.4000000   0.4781110  -0.4752578), wk =   0.0063492
        k(  138) = (   0.4000000  -0.4781110  -0.4752578), wk =   0.0063492
        k(  139) = (  -0.4000000  -0.4781110   0.4752578), wk =   0.0063492
        k(  140) = (  -0.4000000   0.4781110  -0.7128867), wk =   0.0063492
        k(  141) = (   0.4000000  -0.4781110  -0.7128867), wk =   0.0063492
        k(  142) = (  -0.4000000  -0.4781110   0.7128867), wk =   0.0063492
        k(  143) = (  -0.4000000   0.4781110  -0.9505157), wk =   0.0063492
        k(  144) = (   0.4000000  -0.4781110  -0.9505157), wk =   0.0063492
        k(  145) = (  -0.4000000  -0.4781110   0.9505157), wk =   0.0063492
        k(  146) = (  -0.4000000   0.7171664   0.0000000), wk =   0.0063492
        k(  147) = (  -0.4000000   0.7171664  -0.2376289), wk =   0.0063492
        k(  148) = (   0.4000000  -0.7171664  -0.2376289), wk =   0.0063492
        k(  149) = (  -0.4000000  -0.7171664   0.2376289), wk =   0.0063492
        k(  150) = (  -0.4000000   0.7171664  -0.4752578), wk =   0.0063492
        k(  151) = (   0.4000000  -0.7171664  -0.4752578), wk =   0.0063492
        k(  152) = (  -0.4000000  -0.7171664   0.4752578), wk =   0.0063492
        k(  153) = (  -0.4000000   0.7171664  -0.7128867), wk =   0.0063492
        k(  154) = (   0.4000000  -0.7171664  -0.7128867), wk =   0.0063492
        k(  155) = (  -0.4000000  -0.7171664   0.7128867), wk =   0.0063492
        k(  156) = (  -0.4000000   0.7171664  -0.9505157), wk =   0.0063492
        k(  157) = (   0.4000000  -0.7171664  -0.9505157), wk =   0.0063492
        k(  158) = (  -0.4000000  -0.7171664   0.9505157), wk =   0.0063492

                       cryst. coord.
        k(    1) = (   0.0000000   0.0000000   0.0000000), wk =   0.0031746
        k(    2) = (   0.0000000   0.0000000   0.1111111), wk =   0.0063492
        k(    3) = (   0.0000000   0.0000000   0.2222222), wk =   0.0063492
        k(    4) = (   0.0000000   0.0000000   0.3333333), wk =   0.0063492
        k(    5) = (   0.0000000   0.0000000   0.4444444), wk =   0.0063492
        k(    6) = (   0.0000000   0.1428571   0.0000000), wk =   0.0063492
        k(    7) = (   0.0000000   0.1428571   0.1111111), wk =   0.0063492
        k(    8) = (   0.0000000   0.1428571   0.2222222), wk =   0.0063492
        k(    9) = (   0.0000000   0.1428571   0.3333333), wk =   0.0063492
        k(   10) = (   0.0000000   0.1428571   0.4444444), wk =   0.0063492
        k(   11) = (   0.0000000   0.2857143   0.0000000), wk =   0.0063492
        k(   12) = (   0.0000000   0.2857143   0.1111111), wk =   0.0063492
        k(   13) = (   0.0000000   0.2857143   0.2222222), wk =   0.0063492
        k(   14) = (   0.0000000   0.2857143   0.3333333), wk =   0.0063492
        k(   15) = (   0.0000000   0.2857143   0.4444444), wk =   0.0063492
        k(   16) = (   0.0000000   0.4285714   0.0000000), wk =   0.0063492
        k(   17) = (   0.0000000   0.4285714   0.1111111), wk =   0.0063492
        k(   18) = (   0.0000000   0.4285714   0.2222222), wk =   0.0063492
        k(   19) = (   0.0000000   0.4285714   0.3333333), wk =   0.0063492
        k(   20) = (   0.0000000   0.4285714   0.4444444), wk =   0.0063492
        k(   21) = (   0.2000000   0.0000000   0.0000000), wk =   0.0063492
        k(   22) = (   0.2000000   0.0000000   0.1111111), wk =   0.0063492
        k(   23) = (   0.2000000   0.0000000   0.2222222), wk =   0.0063492
        k(   24) = (   0.2000000   0.0000000   0.3333333), wk =   0.0063492
        k(   25) = (   0.2000000   0.0000000   0.4444444), wk =   0.0063492
        k(   26) = (   0.2000000   0.1428571   0.0000000), wk =   0.0063492
        k(   27) = (   0.2000000   0.1428571   0.1111111), wk =   0.0063492
        k(   28) = (   0.2000000   0.1428571   0.2222222), wk =   0.0063492
        k(   29) = (   0.2000000   0.1428571   0.3333333), wk =   0.0063492
        k(   30) = (   0.2000000   0.1428571   0.4444444), wk =   0.0063492
        k(   31) = (   0.2000000   0.2857143   0.0000000), wk =   0.0063492
        k(   32) = (   0.2000000   0.2857143   0.1111111), wk =   0.0063492
        k(   33) = (   0.2000000   0.2857143   0.2222222), wk =   0.0063492
        k(   34) = (   0.2000000   0.2857143   0.3333333), wk =   0.0063492
        k(   35) = (   0.2000000   0.2857143   0.4444444), wk =   0.0063492
        k(   36) = (   0.2000000   0.4285714   0.0000000), wk =   0.0063492
        k(   37) = (   0.2000000   0.4285714   0.1111111), wk =   0.0063492
        k(   38) = (   0.2000000   0.4285714   0.2222222), wk =   0.0063492
        k(   39) = (   0.2000000   0.4285714   0.3333333), wk =   0.0063492
        k(   40) = (   0.2000000   0.4285714   0.4444444), wk =   0.0063492
        k(   41) = (   0.4000000   0.0000000   0.0000000), wk =   0.0063492
        k(   42) = (   0.4000000   0.0000000   0.1111111), wk =   0.0063492
        k(   43) = (   0.4000000   0.0000000   0.2222222), wk =   0.0063492
        k(   44) = (   0.4000000   0.0000000   0.3333333), wk =   0.0063492
        k(   45) = (   0.4000000   0.0000000   0.4444444), wk =   0.0063492
        k(   46) = (   0.4000000   0.1428571   0.0000000), wk =   0.0063492
        k(   47) = (   0.4000000   0.1428571   0.1111111), wk =   0.0063492
        k(   48) = (   0.4000000   0.1428571   0.2222222), wk =   0.0063492
        k(   49) = (   0.4000000   0.1428571   0.3333333), wk =   0.0063492
        k(   50) = (   0.4000000   0.1428571   0.4444444), wk =   0.0063492
        k(   51) = (   0.4000000   0.2857143   0.0000000), wk =   0.0063492
        k(   52) = (   0.4000000   0.2857143   0.1111111), wk =   0.0063492
        k(   53) = (   0.4000000   0.2857143   0.2222222), wk =   0.0063492
        k(   54) = (   0.4000000   0.2857143   0.3333333), wk =   0.0063492
        k(   55) = (   0.4000000   0.2857143   0.4444444), wk =   0.0063492
        k(   56) = (   0.4000000   0.4285714   0.0000000), wk =   0.0063492
        k(   57) = (   0.4000000   0.4285714   0.1111111), wk =   0.0063492
        k(   58) = (   0.4000000   0.4285714   0.2222222), wk =   0.0063492
        k(   59) = (   0.4000000   0.4285714   0.3333333), wk =   0.0063492
        k(   60) = (   0.4000000   0.4285714   0.4444444), wk =   0.0063492
        k(   61) = (   0.0000000   0.1428571  -0.1111111), wk =   0.0063492
        k(   62) = (   0.0000000   0.1428571  -0.2222222), wk =   0.0063492
        k(   63) = (   0.0000000   0.1428571  -0.3333333), wk =   0.0063492
        k(   64) = (   0.0000000   0.1428571  -0.4444444), wk =   0.0063492
        k(   65) = (   0.0000000   0.2857143  -0.1111111), wk =   0.0063492
        k(   66) = (   0.0000000   0.2857143  -0.2222222), wk =   0.0063492
        k(   67) = (   0.0000000   0.2857143  -0.3333333), wk =   0.0063492
        k(   68) = (   0.0000000   0.2857143  -0.4444444), wk =   0.0063492
        k(   69) = (   0.0000000   0.4285714  -0.1111111), wk =   0.0063492
        k(   70) = (   0.0000000   0.4285714  -0.2222222), wk =   0.0063492
        k(   71) = (   0.0000000   0.4285714  -0.3333333), wk =   0.0063492
        k(   72) = (   0.0000000   0.4285714  -0.4444444), wk =   0.0063492
        k(   73) = (   0.2000000   0.0000000  -0.1111111), wk =   0.0063492
        k(   74) = (   0.2000000   0.0000000  -0.2222222), wk =   0.0063492
        k(   75) = (   0.2000000   0.0000000  -0.3333333), wk =   0.0063492
        k(   76) = (   0.2000000   0.0000000  -0.4444444), wk =   0.0063492
        k(   77) = (  -0.2000000   0.1428571   0.0000000), wk =   0.0063492
        k(   78) = (  -0.2000000   0.1428571  -0.1111111), wk =   0.0063492
        k(   79) = (   0.2000000  -0.1428571  -0.1111111), wk =   0.0063492
        k(   80) = (  -0.2000000  -0.1428571   0.1111111), wk =   0.0063492
        k(   81) = (  -0.2000000   0.1428571  -0.2222222), wk =   0.0063492
        k(   82) = (   0.2000000  -0.1428571  -0.2222222), wk =   0.0063492
        k(   83) = (  -0.2000000  -0.1428571   0.2222222), wk =   0.0063492
        k(   84) = (  -0.2000000   0.1428571  -0.3333333), wk =   0.0063492
        k(   85) = (   0.2000000  -0.1428571  -0.3333333), wk =   0.0063492
        k(   86) = (  -0.2000000  -0.1428571   0.3333333), wk =   0.0063492
        k(   87) = (  -0.2000000   0.1428571  -0.4444444), wk =   0.0063492
        k(   88) = (   0.2000000  -0.1428571  -0.4444444), wk =   0.0063492
        k(   89) = (  -0.2000000  -0.1428571   0.4444444), wk =   0.0063492
        k(   90) = (  -0.2000000   0.2857143   0.0000000), wk =   0.0063492
        k(   91) = (  -0.2000000   0.2857143  -0.1111111), wk =   0.0063492
        k(   92) = (   0.2000000  -0.2857143  -0.1111111), wk =   0.0063492
        k(   93) = (  -0.2000000  -0.2857143   0.1111111), wk =   0.0063492
        k(   94) = (  -0.2000000   0.2857143  -0.2222222), wk =   0.0063492
        k(   95) = (   0.2000000  -0.2857143  -0.2222222), wk =   0.0063492
        k(   96) = (  -0.2000000  -0.2857143   0.2222222), wk =   0.0063492
        k(   97) = (  -0.2000000   0.2857143  -0.3333333), wk =   0.0063492
        k(   98) = (   0.2000000  -0.2857143  -0.3333333), wk =   0.0063492
        k(   99) = (  -0.2000000  -0.2857143   0.3333333), wk =   0.0063492
        k(  100) = (  -0.2000000   0.2857143  -0.4444444), wk =   0.0063492
        k(  101) = (   0.2000000  -0.2857143  -0.4444444), wk =   0.0063492
        k(  102) = (  -0.2000000  -0.2857143   0.4444444), wk =   0.0063492
        k(  103) = (  -0.2000000   0.4285714   0.0000000), wk =   0.0063492
        k(  104) = (  -0.2000000   0.4285714  -0.1111111), wk =   0.0063492
        k(  105) = (   0.2000000  -0.4285714  -0.1111111), wk =   0.0063492
        k(  106) = (  -0.2000000  -0.4285714   0.1111111), wk =   0.0063492
        k(  107) = (  -0.2000000   0.4285714  -0.2222222), wk =   0.0063492
        k(  108) = (   0.2000000  -0.4285714  -0.2222222), wk =   0.0063492
        k(  109) = (  -0.2000000  -0.4285714   0.2222222), wk =   0.0063492
        k(  110) = (  -0.2000000   0.4285714  -0.3333333), wk =   0.0063492
        k(  111) = (   0.2000000  -0.4285714  -0.3333333), wk =   0.0063492
        k(  112) = (  -0.2000000  -0.4285714   0.3333333), wk =   0.0063492
        k(  113) = (  -0.2000000   0.4285714  -0.4444444), wk =   0.0063492
        k(  114) = (   0.2000000  -0.4285714  -0.4444444), wk =   0.0063492
        k(  115) = (  -0.2000000  -0.4285714   0.4444444), wk =   0.0063492
        k(  116) = (   0.4000000   0.0000000  -0.1111111), wk =   0.0063492
        k(  117) = (   0.4000000   0.0000000  -0.2222222), wk =   0.0063492
        k(  118) = (   0.4000000   0.0000000  -0.3333333), wk =   0.0063492
        k(  119) = (   0.4000000   0.0000000  -0.4444444), wk =   0.0063492
        k(  120) = (  -0.4000000   0.1428571   0.0000000), wk =   0.0063492
        k(  121) = (  -0.4000000   0.1428571  -0.1111111), wk =   0.0063492
        k(  122) = (   0.4000000  -0.1428571  -0.1111111), wk =   0.0063492
        k(  123) = (  -0.4000000  -0.1428571   0.1111111), wk =   0.0063492
        k(  124) = (  -0.4000000   0.1428571  -0.2222222), wk =   0.0063492
        k(  125) = (   0.4000000  -0.1428571  -0.2222222), wk =   0.0063492
        k(  126) = (  -0.4000000  -0.1428571   0.2222222), wk =   0.0063492
        k(  127) = (  -0.4000000   0.1428571  -0.3333333), wk =   0.0063492
        k(  128) = (   0.4000000  -0.1428571  -0.3333333), wk =   0.0063492
        k(  129) = (  -0.4000000  -0.1428571   0.3333333), wk =   0.0063492
        k(  130) = (  -0.4000000   0.1428571  -0.4444444), wk =   0.0063492
        k(  131) = (   0.4000000  -0.1428571  -0.4444444), wk =   0.0063492
        k(  132) = (  -0.4000000  -0.1428571   0.4444444), wk =   0.0063492
        k(  133) = (  -0.4000000   0.2857143   0.0000000), wk =   0.0063492
        k(  134) = (  -0.4000000   0.2857143  -0.1111111), wk =   0.0063492
        k(  135) = (   0.4000000  -0.2857143  -0.1111111), wk =   0.0063492
        k(  136) = (  -0.4000000  -0.2857143   0.1111111), wk =   0.0063492
        k(  137) = (  -0.4000000   0.2857143  -0.2222222), wk =   0.0063492
        k(  138) = (   0.4000000  -0.2857143  -0.2222222), wk =   0.0063492
        k(  139) = (  -0.4000000  -0.2857143   0.2222222), wk =   0.0063492
        k(  140) = (  -0.4000000   0.2857143  -0.3333333), wk =   0.0063492
        k(  141) = (   0.4000000  -0.2857143  -0.3333333), wk =   0.0063492
        k(  142) = (  -0.4000000  -0.2857143   0.3333333), wk =   0.0063492
        k(  143) = (  -0.4000000   0.2857143  -0.4444444), wk =   0.0063492
        k(  144) = (   0.4000000  -0.2857143  -0.4444444), wk =   0.0063492
        k(  145) = (  -0.4000000  -0.2857143   0.4444444), wk =   0.0063492
        k(  146) = (  -0.4000000   0.4285714   0.0000000), wk =   0.0063492
        k(  147) = (  -0.4000000   0.4285714  -0.1111111), wk =   0.0063492
        k(  148) = (   0.4000000  -0.4285714  -0.1111111), wk =   0.0063492
        k(  149) = (  -0.4000000  -0.4285714   0.1111111), wk =   0.0063492
        k(  150) = (  -0.4000000   0.4285714  -0.2222222), wk =   0.0063492
        k(  151) = (   0.4000000  -0.4285714  -0.2222222), wk =   0.0063492
        k(  152) = (  -0.4000000  -0.4285714   0.2222222), wk =   0.0063492
        k(  153) = (  -0.4000000   0.4285714  -0.3333333), wk =   0.0063492
        k(  154) = (   0.4000000  -0.4285714  -0.3333333), wk =   0.0063492
        k(  155) = (  -0.4000000  -0.4285714   0.3333333), wk =   0.0063492
        k(  156) = (  -0.4000000   0.4285714  -0.4444444), wk =   0.0063492
        k(  157) = (   0.4000000  -0.4285714  -0.4444444), wk =   0.0063492
        k(  158) = (  -0.4000000  -0.4285714   0.4444444), wk =   0.0063492

     Dense  grid:  1338317 G-vectors     FFT dimensions: ( 216, 125, 100)

     Smooth grid:   301689 G-vectors     FFT dimensions: ( 128,  80,  60)

     Dynamical RAM for                 wfc:       5.47 MB

     Dynamical RAM for     wfc (w. buffer):    1732.57 MB

     Dynamical RAM for           str. fact:       6.81 MB

     Dynamical RAM for           local pot:       0.00 MB

     Dynamical RAM for          nlocal pot:      13.42 MB

     Dynamical RAM for                qrad:      10.54 MB

     Dynamical RAM for          rho,v,vnew:      21.33 MB

     Dynamical RAM for               rhoin:       7.11 MB

     Dynamical RAM for            rho*nmix:      54.46 MB

     Dynamical RAM for           G-vectors:       6.57 MB

     Dynamical RAM for          h,s,v(r/c):       2.38 MB

     Dynamical RAM for          <psi|beta>:       0.49 MB

     Dynamical RAM for                 psi:      10.93 MB

     Dynamical RAM for                hpsi:      10.93 MB

     Dynamical RAM for                spsi:      10.93 MB

     Dynamical RAM for      wfcinit/wfcrot:      13.57 MB

     Dynamical RAM for           addusdens:     345.46 MB

     Dynamical RAM for          addusforce:     396.64 MB

     Dynamical RAM for         addusstress:     344.61 MB

     Estimated static dynamical RAM per process >       1.83 GB

     Estimated max dynamical RAM per process >       2.22 GB

     Estimated total dynamical RAM >      26.59 GB

     Check: negative core charge=   -0.000003
     Generating pointlists ...
     new r_m :   0.0759 (alat units)  1.5180 (a.u.) for type    1
     new r_m :   0.0935 (alat units)  1.8703 (a.u.) for type    2
     new r_m :   0.0601 (alat units)  1.2012 (a.u.) for type    3
     new r_m :   0.0601 (alat units)  1.2012 (a.u.) for type    4

     Initial potential from superposition of free atoms

     starting charge  188.99132, renormalised to  189.00000
     Starting wfcs are  137 randomized atomic wfcs
     Checking if some PAW data can be deallocated... 
       PAW data deallocated on   10 nodes for type:  1
       PAW data deallocated on    4 nodes for type:  3

     total cpu time spent up to now is     2508.7 secs

     Self-consistent Calculation

     iteration #  1     ecut=   100.00 Ry     beta= 0.40
     Davidson diagonalization with overlap
     ethr =  1.00E-02,  avg # of iterations =  3.0

     negative rho (up, down):  0.000E+00 8.986E-05

     total cpu time spent up to now is     9373.3 secs

     total energy              =   -2123.99187937 Ry
     estimated scf accuracy    <       6.77496459 Ry

     total magnetization       =    19.00 Bohr mag/cell
     absolute magnetization    =    19.00 Bohr mag/cell

     iteration #  2     ecut=   100.00 Ry     beta= 0.40
     Davidson diagonalization with overlap
     ethr =  3.58E-03,  avg # of iterations =  2.0

     negative rho (up, down):  0.000E+00 4.665E-05

     total cpu time spent up to now is    16005.5 secs

     total energy              =   -2122.46964652 Ry
     estimated scf accuracy    <      19.52809808 Ry

     total magnetization       =     9.88 Bohr mag/cell
     absolute magnetization    =    10.12 Bohr mag/cell

     iteration #  3     ecut=   100.00 Ry     beta= 0.40
     Davidson diagonalization with overlap
     ethr =  3.58E-03,  avg # of iterations =  2.0

     negative rho (up, down):  0.000E+00 1.543E-04

     total cpu time spent up to now is    21591.9 secs

     total energy              =   -2126.14090832 Ry
     estimated scf accuracy    <       2.08295711 Ry

     total magnetization       =    19.00 Bohr mag/cell
     absolute magnetization    =    19.00 Bohr mag/cell

     iteration #  4     ecut=   100.00 Ry     beta= 0.40
     Davidson diagonalization with overlap
     ethr =  1.10E-03,  avg # of iterations =  1.9

     negative rho (up, down):  0.000E+00 2.121E-04

     total cpu time spent up to now is    27067.7 secs

     total energy              =   -2126.14264680 Ry
     estimated scf accuracy    <       1.18340102 Ry

     total magnetization       =    19.00 Bohr mag/cell
     absolute magnetization    =    19.00 Bohr mag/cell

     iteration #  5     ecut=   100.00 Ry     beta= 0.40
     Davidson diagonalization with overlap
     ethr =  6.26E-04,  avg # of iterations =  1.7

     negative rho (up, down):  0.000E+00 6.319E-04

     total cpu time spent up to now is    32407.4 secs

     total energy              =   -2125.99793451 Ry
     estimated scf accuracy    <       0.76110372 Ry

     total magnetization       =    19.00 Bohr mag/cell
     absolute magnetization    =    19.00 Bohr mag/cell

     iteration #  6     ecut=   100.00 Ry     beta= 0.40
     Davidson diagonalization with overlap
     ethr =  4.03E-04,  avg # of iterations =  2.2

     negative rho (up, down):  0.000E+00 7.488E-04

     total cpu time spent up to now is    37970.8 secs

     total energy              =   -2126.09840338 Ry
     estimated scf accuracy    <       0.18575874 Ry

     total magnetization       =    19.00 Bohr mag/cell
     absolute magnetization    =    19.01 Bohr mag/cell

     iteration #  7     ecut=   100.00 Ry     beta= 0.40
     Davidson diagonalization with overlap
     c_bands:  1 eigenvalues not converged
     c_bands:  1 eigenvalues not converged
     c_bands:  1 eigenvalues not converged
     c_bands:  1 eigenvalues not converged
     c_bands:  1 eigenvalues not converged
     c_bands:  1 eigenvalues not converged
     c_bands:  1 eigenvalues not converged
     c_bands:  1 eigenvalues not converged
     c_bands:  1 eigenvalues not converged
     c_bands:  1 eigenvalues not converged
     c_bands:  2 eigenvalues not converged
     c_bands:  1 eigenvalues not converged
     ethr =  9.83E-05,  avg # of iterations = 13.0

     negative rho (up, down):  0.000E+00 9.490E-04

     total cpu time spent up to now is    45057.6 secs

     total energy              =   -2126.11183931 Ry
     estimated scf accuracy    <       0.02390317 Ry

     total magnetization       =    19.00 Bohr mag/cell
     absolute magnetization    =    19.01 Bohr mag/cell

     iteration #  8     ecut=   100.00 Ry     beta= 0.40
     Davidson diagonalization with overlap
     c_bands:  1 eigenvalues not converged
     c_bands:  1 eigenvalues not converged
     c_bands:  1 eigenvalues not converged
     c_bands:  1 eigenvalues not converged
     c_bands:  1 eigenvalues not converged
     c_bands:  1 eigenvalues not converged
     c_bands:  2 eigenvalues not converged
     c_bands:  1 eigenvalues not converged
     c_bands:  1 eigenvalues not converged
     c_bands:  1 eigenvalues not converged
     c_bands:  1 eigenvalues not converged
     c_bands:  1 eigenvalues not converged
     ethr =  1.26E-05,  avg # of iterations = 10.1

     negative rho (up, down):  0.000E+00 9.901E-04

     total cpu time spent up to now is    53374.3 secs

     total energy              =   -2126.11959117 Ry
     estimated scf accuracy    <       0.03104744 Ry

     total magnetization       =    19.00 Bohr mag/cell
     absolute magnetization    =    19.03 Bohr mag/cell

     iteration #  9     ecut=   100.00 Ry     beta= 0.40
     Davidson diagonalization with overlap
     ethr =  1.26E-05,  avg # of iterations =  1.0

     negative rho (up, down):  0.000E+00 9.862E-04

     total cpu time spent up to now is    58496.4 secs

     total energy              =   -2126.12045917 Ry
     estimated scf accuracy    <       0.00522395 Ry

     total magnetization       =    19.00 Bohr mag/cell
     absolute magnetization    =    19.04 Bohr mag/cell

     iteration # 10     ecut=   100.00 Ry     beta= 0.40
     Davidson diagonalization with overlap
     c_bands:  1 eigenvalues not converged
     c_bands:  1 eigenvalues not converged
     c_bands:  2 eigenvalues not converged
     c_bands:  1 eigenvalues not converged
     c_bands:  1 eigenvalues not converged
     c_bands:  2 eigenvalues not converged
     c_bands:  1 eigenvalues not converged
     ethr =  2.76E-06,  avg # of iterations =  5.7

     negative rho (up, down):  0.000E+00 9.758E-04

     total cpu time spent up to now is    64390.6 secs

     total energy              =   -2126.12074278 Ry
     estimated scf accuracy    <       0.00211580 Ry

     total magnetization       =    19.00 Bohr mag/cell
     absolute magnetization    =    19.04 Bohr mag/cell

     iteration # 11     ecut=   100.00 Ry     beta= 0.40
     Davidson diagonalization with overlap
     c_bands:  1 eigenvalues not converged
     c_bands:  1 eigenvalues not converged
     c_bands:  1 eigenvalues not converged
     c_bands:  1 eigenvalues not converged
     c_bands:  1 eigenvalues not converged
     c_bands:  1 eigenvalues not converged
     ethr =  1.12E-06,  avg # of iterations =  3.2

     negative rho (up, down):  0.000E+00 9.811E-04

     total cpu time spent up to now is    69946.8 secs

     total energy              =   -2126.12093156 Ry
     estimated scf accuracy    <       0.00013587 Ry

     total magnetization       =    19.00 Bohr mag/cell
     absolute magnetization    =    19.05 Bohr mag/cell

     iteration # 12     ecut=   100.00 Ry     beta= 0.40
     Davidson diagonalization with overlap
     c_bands:  1 eigenvalues not converged
     ethr =  7.19E-08,  avg # of iterations =  5.9

     negative rho (up, down):  0.000E+00 9.724E-04

     total cpu time spent up to now is    80062.5 secs

     total energy              =   -2126.12107006 Ry
     estimated scf accuracy    <       0.00015171 Ry

     total magnetization       =    19.00 Bohr mag/cell
     absolute magnetization    =    19.05 Bohr mag/cell

     iteration # 13     ecut=   100.00 Ry     beta= 0.40
     Davidson diagonalization with overlap
     ethr =  7.19E-08,  avg # of iterations =  1.5

     negative rho (up, down):  0.000E+00 9.705E-04

     total cpu time spent up to now is    85405.5 secs

     total energy              =   -2126.12109067 Ry
     estimated scf accuracy    <       0.00001549 Ry

     total magnetization       =    19.00 Bohr mag/cell
     absolute magnetization    =    19.05 Bohr mag/cell

     iteration # 14     ecut=   100.00 Ry     beta= 0.40
     Davidson diagonalization with overlap
     ethr =  8.20E-09,  avg # of iterations =  2.5

     negative rho (up, down):  0.000E+00 9.721E-04

     total cpu time spent up to now is    91361.6 secs

     total energy              =   -2126.12109806 Ry
     estimated scf accuracy    <       0.00000637 Ry

     total magnetization       =    19.00 Bohr mag/cell
     absolute magnetization    =    19.05 Bohr mag/cell

     iteration # 15     ecut=   100.00 Ry     beta= 0.40
     Davidson diagonalization with overlap
     ethr =  3.37E-09,  avg # of iterations =  2.0

     negative rho (up, down):  0.000E+00 9.732E-04

     total cpu time spent up to now is    97084.3 secs

     total energy              =   -2126.12110065 Ry
     estimated scf accuracy    <       0.00000192 Ry

     total magnetization       =    19.00 Bohr mag/cell
     absolute magnetization    =    19.05 Bohr mag/cell

     iteration # 16     ecut=   100.00 Ry     beta= 0.40
     Davidson diagonalization with overlap
     ethr =  1.01E-09,  avg # of iterations =  2.7

     negative rho (up, down):  0.000E+00 9.735E-04

     total cpu time spent up to now is   103567.3 secs

     total energy              =   -2126.12110271 Ry
     estimated scf accuracy    <       0.00000024 Ry

     total magnetization       =    19.00 Bohr mag/cell
     absolute magnetization    =    19.05 Bohr mag/cell

     iteration # 17     ecut=   100.00 Ry     beta= 0.40
     Davidson diagonalization with overlap
     ethr =  1.29E-10,  avg # of iterations =  4.7

     negative rho (up, down):  0.000E+00 9.736E-04

     total cpu time spent up to now is   111828.7 secs

     total energy              =   -2126.12110306 Ry
     estimated scf accuracy    <       0.00000018 Ry

     total magnetization       =    19.00 Bohr mag/cell
     absolute magnetization    =    19.05 Bohr mag/cell

     iteration # 18     ecut=   100.00 Ry     beta= 0.40
     Davidson diagonalization with overlap
     ethr =  9.49E-11,  avg # of iterations =  2.0

     negative rho (up, down):  0.000E+00 9.737E-04

     total cpu time spent up to now is   117300.0 secs

     total energy              =   -2126.12110318 Ry
     estimated scf accuracy    <       0.00000013 Ry

     total magnetization       =    19.00 Bohr mag/cell
     absolute magnetization    =    19.05 Bohr mag/cell

     iteration # 19     ecut=   100.00 Ry     beta= 0.40
     Davidson diagonalization with overlap
     ethr =  6.98E-11,  avg # of iterations =  2.0

     negative rho (up, down):  0.000E+00 9.736E-04

     total cpu time spent up to now is   122749.3 secs

     total energy              =   -2126.12110323 Ry
     estimated scf accuracy    <       0.00000011 Ry

     total magnetization       =    19.00 Bohr mag/cell
     absolute magnetization    =    19.05 Bohr mag/cell

     iteration # 20     ecut=   100.00 Ry     beta= 0.40
     Davidson diagonalization with overlap
     ethr =  5.82E-11,  avg # of iterations =  2.0

     negative rho (up, down):  0.000E+00 9.735E-04

     total cpu time spent up to now is   128202.7 secs

     total energy              =   -2126.12110326 Ry
     estimated scf accuracy    <          8.8E-09 Ry

     total magnetization       =    19.00 Bohr mag/cell
     absolute magnetization    =    19.05 Bohr mag/cell

     iteration # 21     ecut=   100.00 Ry     beta= 0.40
     Davidson diagonalization with overlap
     ethr =  4.66E-12,  avg # of iterations =  3.9

     negative rho (up, down):  0.000E+00 9.735E-04

     total cpu time spent up to now is   135121.5 secs

     total energy              =   -2126.12110327 Ry
     estimated scf accuracy    <       0.00000001 Ry

     total magnetization       =    19.00 Bohr mag/cell
     absolute magnetization    =    19.05 Bohr mag/cell

     iteration # 22     ecut=   100.00 Ry     beta= 0.40
     Davidson diagonalization with overlap
     ethr =  4.66E-12,  avg # of iterations =  2.0

     negative rho (up, down):  0.000E+00 9.735E-04

     total cpu time spent up to now is   140840.1 secs

     total energy              =   -2126.12110328 Ry
     estimated scf accuracy    <          1.6E-09 Ry

     total magnetization       =    19.00 Bohr mag/cell
     absolute magnetization    =    19.05 Bohr mag/cell

     iteration # 23     ecut=   100.00 Ry     beta= 0.40
     Davidson diagonalization with overlap
     ethr =  8.35E-13,  avg # of iterations =  4.0

     negative rho (up, down):  0.000E+00 9.735E-04

     total cpu time spent up to now is   147805.1 secs

     total energy              =   -2126.12110328 Ry
     estimated scf accuracy    <          2.1E-09 Ry

     total magnetization       =    19.00 Bohr mag/cell
     absolute magnetization    =    19.05 Bohr mag/cell

     iteration # 24     ecut=   100.00 Ry     beta= 0.40
     Davidson diagonalization with overlap
     ethr =  8.35E-13,  avg # of iterations =  1.1

     negative rho (up, down):  0.000E+00 9.735E-04

     total cpu time spent up to now is   152980.1 secs

     total energy              =   -2126.12110328 Ry
     estimated scf accuracy    <          3.9E-10 Ry

     total magnetization       =    19.00 Bohr mag/cell
     absolute magnetization    =    19.05 Bohr mag/cell

     iteration # 25     ecut=   100.00 Ry     beta= 0.40
     Davidson diagonalization with overlap
     ethr =  2.04E-13,  avg # of iterations =  2.7

     negative rho (up, down):  0.000E+00 9.735E-04

     total cpu time spent up to now is   159109.1 secs

     total energy              =   -2126.12110328 Ry
     estimated scf accuracy    <          5.6E-10 Ry

     total magnetization       =    19.00 Bohr mag/cell
     absolute magnetization    =    19.05 Bohr mag/cell

     iteration # 26     ecut=   100.00 Ry     beta= 0.40
     Davidson diagonalization with overlap
     ethr =  2.04E-13,  avg # of iterations =  1.1

     negative rho (up, down):  0.000E+00 9.735E-04

     Magnetic moment per site:
     atom:    1    charge:    7.9863    magn:    0.0008    constr:    0.0000
     atom:    2    charge:   12.9198    magn:    3.6696    constr:    0.0000
     atom:    3    charge:   12.9234    magn:    3.6527    constr:    0.0000
     atom:    4    charge:   12.9198    magn:    3.6696    constr:    0.0000
     atom:    5    charge:   12.9234    magn:    3.6527    constr:    0.0000
     atom:    6    charge:    0.8381    magn:    0.0102    constr:    0.0000
     atom:    7    charge:    0.8390    magn:    0.0077    constr:    0.0000
     atom:    8    charge:    0.8381    magn:    0.0102    constr:    0.0000
     atom:    9    charge:    0.8390    magn:    0.0077    constr:    0.0000
     atom:   10    charge:    4.2695    magn:    0.1331    constr:    0.0000
     atom:   11    charge:    4.2721    magn:    0.0835    constr:    0.0000
     atom:   12    charge:    4.2695    magn:    0.1331    constr:    0.0000
     atom:   13    charge:    4.2721    magn:    0.0835    constr:    0.0000
     atom:   14    charge:    4.2442    magn:    0.0938    constr:    0.0000
     atom:   15    charge:    4.2464    magn:    0.1400    constr:    0.0000
     atom:   16    charge:    4.2442    magn:    0.0938    constr:    0.0000
     atom:   17    charge:    4.2465    magn:    0.1400    constr:    0.0000
     atom:   18    charge:    4.2299    magn:    0.1548    constr:    0.0000
     atom:   19    charge:    4.2324    magn:    0.1336    constr:    0.0000
     atom:   20    charge:    4.2283    magn:    0.1463    constr:    0.0000
     atom:   21    charge:    4.2317    magn:    0.1206    constr:    0.0000
     atom:   22    charge:    4.2299    magn:    0.1548    constr:    0.0000
     atom:   23    charge:    4.2324    magn:    0.1336    constr:    0.0000
     atom:   24    charge:    4.2283    magn:    0.1463    constr:    0.0000
     atom:   25    charge:    4.2317    magn:    0.1206    constr:    0.0000

     total cpu time spent up to now is   164304.6 secs

     End of self-consistent calculation

 ------ SPIN UP ------------


          k = 0.0000 0.0000 0.0000 ( 37649 PWs)   bands (ev):

   -85.6747 -85.6742 -85.5937 -85.5927 -51.8005 -51.8001 -51.7738 -51.7729
   -51.6415 -51.6410 -51.5444 -51.5438 -51.5059 -51.5049 -51.4715 -51.4703
   -45.0275 -17.0649 -17.0108 -16.9858 -16.3302 -16.1052 -16.1022 -15.9504
   -13.9635 -13.9417 -13.9298 -13.8371 -13.7637 -13.7289 -13.7023 -13.7002
   -13.6700 -13.6592 -13.5099 -13.4884  -4.4126  -3.9416  -3.8911  -3.5200
    -2.4802  -2.1693  -2.0945  -1.9705  -1.7253  -1.6023  -1.5657  -1.4979
    -1.3607  -1.2464  -0.9708  -0.6918  -0.5961  -0.5805  -0.1104  -0.0509
     0.0447   0.0890   0.2632   0.4004   0.4522   0.5631   0.5773   0.7007
     0.7395   0.8880   0.9674   1.0009   1.2916   1.2924   1.3958   1.4008
     1.5438   1.6187   1.7984   1.8000   1.8277   1.8989   1.9728   2.1115
     2.1915   2.2704   2.3082   2.4341   2.4896   2.5512   2.6099   2.7440
     2.8668   2.8837   2.9380   2.9757   3.1008   3.2675   3.3220   3.4883
     3.5412   3.6175   3.6590   3.7285   3.8816   3.9615   4.2685   4.3512
     8.4298  10.4483  10.9445  11.2697  11.4855  12.3118  12.3348  12.5738
    12.8972  12.9629

     occupation numbers 
     1.0000   1.0000   1.0000   1.0000   1.0000   1.0000   1.0000   1.0000
     1.0000   1.0000   1.0000   1.0000   1.0000   1.0000   1.0000   1.0000
     1.0000   1.0000   1.0000   1.0000   1.0000   1.0000   1.0000   1.0000
     1.0000   1.0000   1.0000   1.0000   1.0000   1.0000   1.0000   1.0000
     1.0000   1.0000   1.0000   1.0000   1.0000   1.0000   1.0000   1.0000
     1.0000   1.0000   1.0000   1.0000   1.0000   1.0000   1.0000   1.0000
     1.0000   1.0000   1.0000   1.0000   1.0000   1.0000   1.0000   1.0000
     1.0000   1.0000   1.0000   1.0000   1.0000   1.0000   1.0000   1.0000
     1.0000   1.0000   1.0000   1.0000   1.0000   1.0000   1.0000   1.0000
     1.0000   1.0000   1.0000   1.0000   1.0000   1.0000   1.0000   1.0000
     1.0000   1.0000   1.0000   1.0000   1.0000   1.0000   1.0000   1.0000
     1.0000   1.0000   1.0000   1.0000   1.0000   1.0000   1.0000   1.0000
     1.0000   1.0000   1.0000   1.0000   1.0000   1.0000   1.0000   1.0000
     0.0000   0.0000   0.0000   0.0000   0.0000   0.0000   0.0000   0.0000
     0.0000   0.0000

          k = 0.0000 0.0000 0.2376 ( 37659 PWs)   bands (ev):

   -85.6747 -85.6742 -85.5937 -85.5927 -51.8005 -51.8001 -51.7738 -51.7729
   -51.6415 -51.6410 -51.5444 -51.5438 -51.5059 -51.5049 -51.4715 -51.4703
   -45.0275 -17.0638 -17.0109 -16.9886 -16.3113 -16.1023 -16.0918 -15.9506
   -13.9782 -13.9606 -13.9350 -13.8532 -13.7651 -13.7246 -13.7067 -13.6978
   -13.6648 -13.6547 -13.5141 -13.4939  -4.3915  -3.9396  -3.8887  -3.5297
    -2.4339  -2.1392  -2.0932  -1.9509  -1.7215  -1.6331  -1.5525  -1.4467
    -1.3492  -1.2127  -1.0153  -0.6822  -0.6251  -0.5616  -0.0968  -0.0401
     0.0435   0.1296   0.2552   0.4043   0.4443   0.5352   0.5658   0.7037
     0.7469   0.8880   0.9522   0.9995   1.2426   1.2468   1.3379   1.3828
     1.5880   1.6365   1.7288   1.7787   1.8115   1.8771   1.9835   2.1505
     2.2064   2.2934   2.3073   2.3985   2.5188   2.5672   2.5987   2.6862
     2.8467   2.8808   2.9547   2.9831   3.0481   3.3176   3.3367   3.4910
     3.5542   3.6450   3.6708   3.7256   3.8743   3.9651   4.2444   4.3298
     8.5773  10.5217  10.9781  11.2632  11.5582  12.1691  12.4270  12.5143
    12.7798  12.9691

     occupation numbers 
     1.0000   1.0000   1.0000   1.0000   1.0000   1.0000   1.0000   1.0000
     1.0000   1.0000   1.0000   1.0000   1.0000   1.0000   1.0000   1.0000
     1.0000   1.0000   1.0000   1.0000   1.0000   1.0000   1.0000   1.0000
     1.0000   1.0000   1.0000   1.0000   1.0000   1.0000   1.0000   1.0000
     1.0000   1.0000   1.0000   1.0000   1.0000   1.0000   1.0000   1.0000
     1.0000   1.0000   1.0000   1.0000   1.0000   1.0000   1.0000   1.0000
     1.0000   1.0000   1.0000   1.0000   1.0000   1.0000   1.0000   1.0000
     1.0000   1.0000   1.0000   1.0000   1.0000   1.0000   1.0000   1.0000
     1.0000   1.0000   1.0000   1.0000   1.0000   1.0000   1.0000   1.0000
     1.0000   1.0000   1.0000   1.0000   1.0000   1.0000   1.0000   1.0000
     1.0000   1.0000   1.0000   1.0000   1.0000   1.0000   1.0000   1.0000
     1.0000   1.0000   1.0000   1.0000   1.0000   1.0000   1.0000   1.0000
     1.0000   1.0000   1.0000   1.0000   1.0000   1.0000   1.0000   1.0000
     0.0000   0.0000   0.0000   0.0000   0.0000   0.0000   0.0000   0.0000
     0.0000   0.0000

          k = 0.0000 0.0000 0.4753 ( 37654 PWs)   bands (ev):

   -85.6747 -85.6742 -85.5937 -85.5927 -51.8006 -51.8001 -51.7738 -51.7729
   -51.6415 -51.6410 -51.5444 -51.5438 -51.5059 -51.5049 -51.4715 -51.4703
   -45.0275 -17.0636 -17.0106 -16.9927 -16.2611 -16.0916 -16.0690 -15.9527
   -14.0149 -13.9986 -13.9589 -13.8971 -13.7642 -13.7197 -13.7081 -13.6961
   -13.6511 -13.6417 -13.5263 -13.5096  -4.3300  -3.9394  -3.8812  -3.5683
    -2.3067  -2.0799  -2.0635  -1.9226  -1.7060  -1.6503  -1.5506  -1.3665
    -1.2566  -1.1305  -1.1276  -0.7697  -0.5806  -0.5032  -0.0551  -0.0129
     0.0667   0.2084   0.2408   0.4111   0.4194   0.4909   0.5094   0.7066
     0.7666   0.8831   0.9273   0.9790   1.1015   1.1724   1.2850   1.3378
     1.4483   1.5711   1.7033   1.7523   1.8100   1.8450   2.0512   2.1090
     2.2752   2.2785   2.3084   2.3860   2.4162   2.5435   2.6023   2.6770
     2.7476   2.9133   3.0178   3.0458   3.0556   3.3249   3.4068   3.5019
     3.5974   3.6994   3.7099   3.7188   3.8605   3.9748   4.1709   4.2653
     8.9712  10.7217  11.0273  11.3069  11.7250  12.0596  12.2334  12.4591
    12.6123  12.7881

     occupation numbers 
     1.0000   1.0000   1.0000   1.0000   1.0000   1.0000   1.0000   1.0000
     1.0000   1.0000   1.0000   1.0000   1.0000   1.0000   1.0000   1.0000
     1.0000   1.0000   1.0000   1.0000   1.0000   1.0000   1.0000   1.0000
     1.0000   1.0000   1.0000   1.0000   1.0000   1.0000   1.0000   1.0000
     1.0000   1.0000   1.0000   1.0000   1.0000   1.0000   1.0000   1.0000
     1.0000   1.0000   1.0000   1.0000   1.0000   1.0000   1.0000   1.0000
     1.0000   1.0000   1.0000   1.0000   1.0000   1.0000   1.0000   1.0000
     1.0000   1.0000   1.0000   1.0000   1.0000   1.0000   1.0000   1.0000
     1.0000   1.0000   1.0000   1.0000   1.0000   1.0000   1.0000   1.0000
     1.0000   1.0000   1.0000   1.0000   1.0000   1.0000   1.0000   1.0000
     1.0000   1.0000   1.0000   1.0000   1.0000   1.0000   1.0000   1.0000
     1.0000   1.0000   1.0000   1.0000   1.0000   1.0000   1.0000   1.0000
     1.0000   1.0000   1.0000   1.0000   1.0000   1.0000   1.0000   1.0000
     0.0000   0.0000   0.0000   0.0000   0.0000   0.0000   0.0000   0.0000
     0.0000   0.0000

          k = 0.0000 0.0000 0.7129 ( 37702 PWs)   bands (ev):

   -85.6747 -85.6742 -85.5937 -85.5927 -51.8006 -51.8001 -51.7738 -51.7729
   -51.6415 -51.6410 -51.5444 -51.5438 -51.5059 -51.5049 -51.4715 -51.4703
   -45.0275 -17.0680 -17.0090 -16.9924 -16.1960 -16.0837 -16.0420 -15.9587
   -14.0552 -14.0379 -13.9904 -13.9511 -13.7593 -13.7262 -13.6992 -13.6942
   -13.6305 -13.6225 -13.5453 -13.5329  -4.2351  -3.9600  -3.8608  -3.6418
    -2.1619  -2.0311  -1.9886  -1.9095  -1.6770  -1.6348  -1.5399  -1.3341
    -1.2632  -1.0677  -1.0210  -0.9193  -0.4582  -0.3873   0.0054   0.0276
     0.1000   0.1843   0.2952   0.3538   0.3951   0.4481   0.4923   0.7177
     0.7566   0.8175   0.9006   0.9617   0.9787   1.0535   1.1915   1.2473
     1.3480   1.4543   1.6386   1.6669   1.8335   1.9794   2.0186   2.1683
     2.1970   2.2317   2.2553   2.3015   2.4268   2.4454   2.5280   2.6344
     2.7632   2.9329   3.1202   3.1720   3.2636   3.3381   3.4185   3.5204
     3.6521   3.7037   3.7458   3.7656   3.8737   3.9771   4.0488   4.1603
     9.5098  10.9379  11.0262  11.4272  11.8699  11.9187  12.1359  12.2601
    12.4996  12.5280

     occupation numbers 
     1.0000   1.0000   1.0000   1.0000   1.0000   1.0000   1.0000   1.0000
     1.0000   1.0000   1.0000   1.0000   1.0000   1.0000   1.0000   1.0000
     1.0000   1.0000   1.0000   1.0000   1.0000   1.0000   1.0000   1.0000
     1.0000   1.0000   1.0000   1.0000   1.0000   1.0000   1.0000   1.0000
     1.0000   1.0000   1.0000   1.0000   1.0000   1.0000   1.0000   1.0000
     1.0000   1.0000   1.0000   1.0000   1.0000   1.0000   1.0000   1.0000
     1.0000   1.0000   1.0000   1.0000   1.0000   1.0000   1.0000   1.0000
     1.0000   1.0000   1.0000   1.0000   1.0000   1.0000   1.0000   1.0000
     1.0000   1.0000   1.0000   1.0000   1.0000   1.0000   1.0000   1.0000
     1.0000   1.0000   1.0000   1.0000   1.0000   1.0000   1.0000   1.0000
     1.0000   1.0000   1.0000   1.0000   1.0000   1.0000   1.0000   1.0000
     1.0000   1.0000   1.0000   1.0000   1.0000   1.0000   1.0000   1.0000
     1.0000   1.0000   1.0000   1.0000   1.0000   1.0000   1.0000   1.0000
     0.0000   0.0000   0.0000   0.0000   0.0000   0.0000   0.0000   0.0000
     0.0000   0.0000

          k = 0.0000 0.0000 0.9505 ( 37742 PWs)   bands (ev):

   -85.6747 -85.6742 -85.5937 -85.5927 -51.8006 -51.8001 -51.7738 -51.7729
   -51.6415 -51.6410 -51.5444 -51.5438 -51.5059 -51.5049 -51.4715 -51.4703
   -45.0275 -17.0728 -17.0079 -16.9898 -16.1368 -16.0929 -16.0210 -15.9675
   -14.0802 -14.0632 -14.0094 -13.9911 -13.7535 -13.7333 -13.6970 -13.6885
   -13.6075 -13.6005 -13.5684 -13.5567  -4.1238  -4.0229  -3.8152  -3.7291
    -2.0785  -2.0234  -1.9231  -1.8758  -1.6431  -1.5699  -1.5477  -1.4453
    -1.2125  -1.0833  -0.9377  -0.9178  -0.2649  -0.1959  -0.0279   0.0387
     0.0952   0.1142   0.2554   0.2827   0.3729   0.4554   0.5833   0.6693
     0.7208   0.7522   0.8063   0.9024   0.9592   1.0104   1.0465   1.2240
     1.3940   1.4705   1.5157   1.5896   1.8522   1.9969   2.0884   2.1119
     2.1317   2.1679   2.2647   2.3113   2.3414   2.3877   2.4950   2.6262
     2.7746   2.9389   3.1842   3.2994   3.3375   3.4251   3.5278   3.5530
     3.6090   3.7473   3.7677   3.7973   3.8742   3.9288   3.9774   4.0408
    10.0922  10.6247  11.3352  11.5520  11.7193  11.8274  12.0926  12.2080
    12.4540  12.5304

     occupation numbers 
     1.0000   1.0000   1.0000   1.0000   1.0000   1.0000   1.0000   1.0000
     1.0000   1.0000   1.0000   1.0000   1.0000   1.0000   1.0000   1.0000
     1.0000   1.0000   1.0000   1.0000   1.0000   1.0000   1.0000   1.0000
     1.0000   1.0000   1.0000   1.0000   1.0000   1.0000   1.0000   1.0000
     1.0000   1.0000   1.0000   1.0000   1.0000   1.0000   1.0000   1.0000
     1.0000   1.0000   1.0000   1.0000   1.0000   1.0000   1.0000   1.0000
     1.0000   1.0000   1.0000   1.0000   1.0000   1.0000   1.0000   1.0000
     1.0000   1.0000   1.0000   1.0000   1.0000   1.0000   1.0000   1.0000
     1.0000   1.0000   1.0000   1.0000   1.0000   1.0000   1.0000   1.0000
     1.0000   1.0000   1.0000   1.0000   1.0000   1.0000   1.0000   1.0000
     1.0000   1.0000   1.0000   1.0000   1.0000   1.0000   1.0000   1.0000
     1.0000   1.0000   1.0000   1.0000   1.0000   1.0000   1.0000   1.0000
     1.0000   1.0000   1.0000   1.0000   1.0000   1.0000   1.0000   1.0000
     0.0000   0.0000   0.0000   0.0000   0.0000   0.0000   0.0000   0.0000
     0.0000   0.0000

          k = 0.0000 0.2391 0.0000 ( 37676 PWs)   bands (ev):

   -85.6747 -85.6742 -85.5937 -85.5927 -51.8005 -51.8001 -51.7738 -51.7729
   -51.6415 -51.6410 -51.5444 -51.5438 -51.5059 -51.5049 -51.4715 -51.4703
   -45.0275 -17.0655 -17.0109 -16.9858 -16.3127 -16.1098 -16.0932 -15.9689
   -13.9582 -13.9386 -13.9316 -13.8413 -13.7847 -13.7663 -13.7099 -13.6909
   -13.6727 -13.6072 -13.5039 -13.4978  -4.3868  -3.9567  -3.8733  -3.5296
    -2.4542  -2.1755  -2.0839  -1.9737  -1.7071  -1.6072  -1.5379  -1.4746
    -1.3404  -1.2398  -0.9530  -0.6883  -0.6385  -0.5416  -0.0698  -0.0144
     0.0519   0.0682   0.1711   0.2766   0.3990   0.5551   0.6617   0.7320
     0.8448   0.9050   0.9523   0.9926   1.1745   1.1823   1.2867   1.3724
     1.5267   1.7247   1.7897   1.8263   1.8724   1.9433   1.9676   2.0388
     2.1912   2.2682   2.3090   2.3311   2.4568   2.5921   2.6949   2.7892
     2.8291   2.8384   2.8887   3.0438   3.1559   3.2671   3.3139   3.4932
     3.5294   3.5865   3.6435   3.7533   3.8175   3.9976   4.2964   4.3406
     8.5852  10.5393  11.0315  11.1700  11.5708  12.2803  12.3836  12.6327
    12.7985  12.9628

     occupation numbers 
     1.0000   1.0000   1.0000   1.0000   1.0000   1.0000   1.0000   1.0000
     1.0000   1.0000   1.0000   1.0000   1.0000   1.0000   1.0000   1.0000
     1.0000   1.0000   1.0000   1.0000   1.0000   1.0000   1.0000   1.0000
     1.0000   1.0000   1.0000   1.0000   1.0000   1.0000   1.0000   1.0000
     1.0000   1.0000   1.0000   1.0000   1.0000   1.0000   1.0000   1.0000
     1.0000   1.0000   1.0000   1.0000   1.0000   1.0000   1.0000   1.0000
     1.0000   1.0000   1.0000   1.0000   1.0000   1.0000   1.0000   1.0000
     1.0000   1.0000   1.0000   1.0000   1.0000   1.0000   1.0000   1.0000
     1.0000   1.0000   1.0000   1.0000   1.0000   1.0000   1.0000   1.0000
     1.0000   1.0000   1.0000   1.0000   1.0000   1.0000   1.0000   1.0000
     1.0000   1.0000   1.0000   1.0000   1.0000   1.0000   1.0000   1.0000
     1.0000   1.0000   1.0000   1.0000   1.0000   1.0000   1.0000   1.0000
     1.0000   1.0000   1.0000   1.0000   1.0000   1.0000   1.0000   1.0000
     0.0000   0.0000   0.0000   0.0000   0.0000   0.0000   0.0000   0.0000
     0.0000   0.0000

          k = 0.0000 0.2391 0.2376 ( 37671 PWs)   bands (ev):

   -85.6747 -85.6742 -85.5937 -85.5927 -51.8005 -51.8001 -51.7738 -51.7729
   -51.6415 -51.6410 -51.5444 -51.5438 -51.5059 -51.5049 -51.4715 -51.4703
   -45.0275 -17.0634 -17.0111 -16.9887 -16.2973 -16.0980 -16.0916 -15.9662
   -13.9733 -13.9613 -13.9328 -13.8599 -13.7811 -13.7625 -13.7084 -13.6931
   -13.6722 -13.6022 -13.5093 -13.5013  -4.3662  -3.9530  -3.8708  -3.5400
    -2.4091  -2.1458  -2.0780  -1.9577  -1.7033  -1.6261  -1.5257  -1.4337
    -1.3186  -1.2118  -0.9955  -0.7351  -0.6078  -0.5292  -0.0606  -0.0172
     0.0534   0.1111   0.1588   0.2826   0.3761   0.5515   0.6326   0.7427
     0.8180   0.8923   0.9585   0.9967   1.1338   1.1552   1.2496   1.3562
     1.6427   1.7081   1.7450   1.8066   1.8597   1.8888   1.9633   2.0930
     2.1986   2.2681   2.2891   2.3469   2.4564   2.5570   2.6483   2.7751
     2.8148   2.8416   2.9267   3.0056   3.1073   3.3181   3.3414   3.4980
     3.5209   3.6135   3.6733   3.7405   3.8160   4.0087   4.2783   4.3285
     8.7265  10.6148  11.0635  11.1937  11.6096  12.1879  12.4538  12.5115
    12.7805  12.9463

     occupation numbers 
     1.0000   1.0000   1.0000   1.0000   1.0000   1.0000   1.0000   1.0000
     1.0000   1.0000   1.0000   1.0000   1.0000   1.0000   1.0000   1.0000
     1.0000   1.0000   1.0000   1.0000   1.0000   1.0000   1.0000   1.0000
     1.0000   1.0000   1.0000   1.0000   1.0000   1.0000   1.0000   1.0000
     1.0000   1.0000   1.0000   1.0000   1.0000   1.0000   1.0000   1.0000
     1.0000   1.0000   1.0000   1.0000   1.0000   1.0000   1.0000   1.0000
     1.0000   1.0000   1.0000   1.0000   1.0000   1.0000   1.0000   1.0000
     1.0000   1.0000   1.0000   1.0000   1.0000   1.0000   1.0000   1.0000
     1.0000   1.0000   1.0000   1.0000   1.0000   1.0000   1.0000   1.0000
     1.0000   1.0000   1.0000   1.0000   1.0000   1.0000   1.0000   1.0000
     1.0000   1.0000   1.0000   1.0000   1.0000   1.0000   1.0000   1.0000
     1.0000   1.0000   1.0000   1.0000   1.0000   1.0000   1.0000   1.0000
     1.0000   1.0000   1.0000   1.0000   1.0000   1.0000   1.0000   1.0000
     0.0000   0.0000   0.0000   0.0000   0.0000   0.0000   0.0000   0.0000
     0.0000   0.0000

          k = 0.0000 0.2391 0.4753 ( 37686 PWs)   bands (ev):

   -85.6747 -85.6742 -85.5937 -85.5927 -51.8006 -51.8001 -51.7738 -51.7729
   -51.6415 -51.6410 -51.5444 -51.5438 -51.5059 -51.5049 -51.4715 -51.4703
   -45.0275 -17.0624 -17.0108 -16.9928 -16.2510 -16.0883 -16.0678 -15.9641
   -14.0130 -13.9999 -13.9576 -13.9039 -13.7738 -13.7537 -13.7103 -13.6946
   -13.6616 -13.5929 -13.5217 -13.5130  -4.3060  -3.9497  -3.8629  -3.5773
    -2.2863  -2.0712  -2.0582  -1.9301  -1.6867  -1.6419  -1.5199  -1.3348
    -1.2492  -1.1327  -1.1040  -0.8261  -0.5507  -0.4921  -0.0326   0.0006
     0.0704   0.0865   0.2186   0.3027   0.3738   0.5233   0.5913   0.7366
     0.7726   0.8899   0.9477   0.9839   1.0405   1.1229   1.1915   1.3486
     1.5049   1.6760   1.7426   1.7589   1.8059   1.8286   2.0539   2.0989
     2.1751   2.2533   2.3024   2.3579   2.4216   2.5000   2.5740   2.6949
     2.7886   2.8636   2.9747   3.0755   3.0878   3.3378   3.3931   3.5174
     3.5618   3.6518   3.6976   3.7380   3.8325   4.0196   4.2316   4.2822
     9.1072  10.8152  11.1267  11.2662  11.7462  12.0964  12.2766  12.4548
    12.6250  12.8142

     occupation numbers 
     1.0000   1.0000   1.0000   1.0000   1.0000   1.0000   1.0000   1.0000
     1.0000   1.0000   1.0000   1.0000   1.0000   1.0000   1.0000   1.0000
     1.0000   1.0000   1.0000   1.0000   1.0000   1.0000   1.0000   1.0000
     1.0000   1.0000   1.0000   1.0000   1.0000   1.0000   1.0000   1.0000
     1.0000   1.0000   1.0000   1.0000   1.0000   1.0000   1.0000   1.0000
     1.0000   1.0000   1.0000   1.0000   1.0000   1.0000   1.0000   1.0000
     1.0000   1.0000   1.0000   1.0000   1.0000   1.0000   1.0000   1.0000
     1.0000   1.0000   1.0000   1.0000   1.0000   1.0000   1.0000   1.0000
     1.0000   1.0000   1.0000   1.0000   1.0000   1.0000   1.0000   1.0000
     1.0000   1.0000   1.0000   1.0000   1.0000   1.0000   1.0000   1.0000
     1.0000   1.0000   1.0000   1.0000   1.0000   1.0000   1.0000   1.0000
     1.0000   1.0000   1.0000   1.0000   1.0000   1.0000   1.0000   1.0000
     1.0000   1.0000   1.0000   1.0000   1.0000   1.0000   1.0000   1.0000
     0.0000   0.0000   0.0000   0.0000   0.0000   0.0000   0.0000   0.0000
     0.0000   0.0000

          k = 0.0000 0.2391 0.7129 ( 37698 PWs)   bands (ev):

   -85.6747 -85.6742 -85.5937 -85.5927 -51.8006 -51.8001 -51.7738 -51.7729
   -51.6415 -51.6410 -51.5444 -51.5438 -51.5059 -51.5049 -51.4715 -51.4703
   -45.0275 -17.0665 -17.0091 -16.9926 -16.1891 -16.0838 -16.0369 -15.9664
   -14.0568 -14.0398 -13.9905 -13.9572 -13.7653 -13.7465 -13.7106 -13.6964
   -13.6429 -13.5797 -13.5383 -13.5316  -4.2139  -3.9653  -3.8437  -3.6468
    -2.1440  -2.0143  -1.9912  -1.9131  -1.6599  -1.6241  -1.5078  -1.3144
    -1.2300  -1.0649  -1.0231  -0.9521  -0.4471  -0.4152  -0.0201   0.0171
     0.0322   0.1076   0.2574   0.3867   0.4102   0.4868   0.5271   0.6880
     0.7757   0.8552   0.9235   0.9482   0.9652   1.0910   1.1066   1.2527
     1.3437   1.5256   1.6332   1.7029   1.8221   1.9619   2.0269   2.0903
     2.1529   2.2330   2.2579   2.3459   2.3656   2.4348   2.5313   2.6202
     2.7686   2.8716   3.0814   3.1838   3.2314   3.3519   3.3928   3.5362
     3.6112   3.6500   3.7094   3.7663   3.8954   4.0216   4.1586   4.2064
     9.6330  11.0486  11.1157  11.4182  11.9030  11.9918  12.1585  12.2870
    12.4916  12.5042

     occupation numbers 
     1.0000   1.0000   1.0000   1.0000   1.0000   1.0000   1.0000   1.0000
     1.0000   1.0000   1.0000   1.0000   1.0000   1.0000   1.0000   1.0000
     1.0000   1.0000   1.0000   1.0000   1.0000   1.0000   1.0000   1.0000
     1.0000   1.0000   1.0000   1.0000   1.0000   1.0000   1.0000   1.0000
     1.0000   1.0000   1.0000   1.0000   1.0000   1.0000   1.0000   1.0000
     1.0000   1.0000   1.0000   1.0000   1.0000   1.0000   1.0000   1.0000
     1.0000   1.0000   1.0000   1.0000   1.0000   1.0000   1.0000   1.0000
     1.0000   1.0000   1.0000   1.0000   1.0000   1.0000   1.0000   1.0000
     1.0000   1.0000   1.0000   1.0000   1.0000   1.0000   1.0000   1.0000
     1.0000   1.0000   1.0000   1.0000   1.0000   1.0000   1.0000   1.0000
     1.0000   1.0000   1.0000   1.0000   1.0000   1.0000   1.0000   1.0000
     1.0000   1.0000   1.0000   1.0000   1.0000   1.0000   1.0000   1.0000
     1.0000   1.0000   1.0000   1.0000   1.0000   1.0000   1.0000   1.0000
     0.0000   0.0000   0.0000   0.0000   0.0000   0.0000   0.0000   0.0000
     0.0000   0.0000

          k = 0.0000 0.2391 0.9505 ( 37713 PWs)   bands (ev):

   -85.6747 -85.6742 -85.5937 -85.5927 -51.8006 -51.8001 -51.7738 -51.7729
   -51.6415 -51.6410 -51.5444 -51.5438 -51.5059 -51.5049 -51.4715 -51.4703
   -45.0275 -17.0716 -17.0079 -16.9898 -16.1301 -16.0922 -16.0170 -15.9735
   -14.0833 -14.0662 -14.0116 -13.9953 -13.7619 -13.7446 -13.7069 -13.6972
   -13.6223 -13.5648 -13.5582 -13.5489  -4.1074  -4.0184  -3.8050  -3.7277
    -2.0574  -2.0137  -1.9223  -1.8781  -1.6281  -1.5804  -1.4947  -1.4207
    -1.1872  -1.0992  -0.9353  -0.9203  -0.3039  -0.2729  -0.1337  -0.1046
     0.1225   0.1957   0.2689   0.3772   0.4098   0.4908   0.5953   0.6261
     0.7490   0.7723   0.8535   0.9059   0.9583   1.0079   1.0334   1.1523
     1.3729   1.5033   1.5196   1.6062   1.8504   1.9970   2.0172   2.0459
     2.1336   2.1981   2.2445   2.2984   2.3542   2.4158   2.4939   2.6042
     2.7563   2.8742   3.1534   3.3272   3.3413   3.3558   3.4351   3.5559
     3.5623   3.6252   3.7656   3.8019   3.9508   4.0123   4.0700   4.1393
    10.2072  10.7337  11.4285  11.6124  11.7784  11.8599  12.1338  12.2422
    12.3822  12.4726

     occupation numbers 
     1.0000   1.0000   1.0000   1.0000   1.0000   1.0000   1.0000   1.0000
     1.0000   1.0000   1.0000   1.0000   1.0000   1.0000   1.0000   1.0000
     1.0000   1.0000   1.0000   1.0000   1.0000   1.0000   1.0000   1.0000
     1.0000   1.0000   1.0000   1.0000   1.0000   1.0000   1.0000   1.0000
     1.0000   1.0000   1.0000   1.0000   1.0000   1.0000   1.0000   1.0000
     1.0000   1.0000   1.0000   1.0000   1.0000   1.0000   1.0000   1.0000
     1.0000   1.0000   1.0000   1.0000   1.0000   1.0000   1.0000   1.0000
     1.0000   1.0000   1.0000   1.0000   1.0000   1.0000   1.0000   1.0000
     1.0000   1.0000   1.0000   1.0000   1.0000   1.0000   1.0000   1.0000
     1.0000   1.0000   1.0000   1.0000   1.0000   1.0000   1.0000   1.0000
     1.0000   1.0000   1.0000   1.0000   1.0000   1.0000   1.0000   1.0000
     1.0000   1.0000   1.0000   1.0000   1.0000   1.0000   1.0000   1.0000
     1.0000   1.0000   1.0000   1.0000   1.0000   1.0000   1.0000   1.0000
     0.0000   0.0000   0.0000   0.0000   0.0000   0.0000   0.0000   0.0000
     0.0000   0.0000

          k = 0.0000 0.4781 0.0000 ( 37720 PWs)   bands (ev):

   -85.6747 -85.6742 -85.5937 -85.5927 -51.8005 -51.8001 -51.7738 -51.7729
   -51.6415 -51.6410 -51.5444 -51.5438 -51.5059 -51.5049 -51.4715 -51.4703
   -45.0275 -17.0668 -17.0110 -16.9857 -16.2639 -16.1115 -16.0822 -16.0193
   -13.9437 -13.9425 -13.9220 -13.8582 -13.8317 -13.8079 -13.7061 -13.6883
   -13.6521 -13.5561 -13.5263 -13.4872  -4.3158  -4.0159  -3.8098  -3.5644
    -2.3867  -2.1962  -2.0577  -1.9814  -1.6805  -1.6148  -1.4763  -1.3793
    -1.3310  -1.1787  -0.9365  -0.7779  -0.5844  -0.4666  -0.0292  -0.0135
     0.0504   0.0723   0.1322   0.1525   0.2250   0.5044   0.7737   0.7983
     0.8352   0.8742   0.9229   0.9517   0.9977   1.0324   1.2171   1.4189
     1.5411   1.6719   1.8256   1.8347   1.8868   1.8968   1.9653   2.1101
     2.2081   2.2595   2.2866   2.3295   2.4210   2.5849   2.6282   2.6871
     2.7693   2.8158   3.0653   3.1373   3.2198   3.2557   3.3357   3.4414
     3.5243   3.5629   3.6470   3.6883   3.7490   4.1041   4.2905   4.3413
     9.0067  10.7899  10.8050  11.2636  11.7012  12.1264  12.5708  12.6624
    12.8517  12.9601

     occupation numbers 
     1.0000   1.0000   1.0000   1.0000   1.0000   1.0000   1.0000   1.0000
     1.0000   1.0000   1.0000   1.0000   1.0000   1.0000   1.0000   1.0000
     1.0000   1.0000   1.0000   1.0000   1.0000   1.0000   1.0000   1.0000
     1.0000   1.0000   1.0000   1.0000   1.0000   1.0000   1.0000   1.0000
     1.0000   1.0000   1.0000   1.0000   1.0000   1.0000   1.0000   1.0000
     1.0000   1.0000   1.0000   1.0000   1.0000   1.0000   1.0000   1.0000
     1.0000   1.0000   1.0000   1.0000   1.0000   1.0000   1.0000   1.0000
     1.0000   1.0000   1.0000   1.0000   1.0000   1.0000   1.0000   1.0000
     1.0000   1.0000   1.0000   1.0000   1.0000   1.0000   1.0000   1.0000
     1.0000   1.0000   1.0000   1.0000   1.0000   1.0000   1.0000   1.0000
     1.0000   1.0000   1.0000   1.0000   1.0000   1.0000   1.0000   1.0000
     1.0000   1.0000   1.0000   1.0000   1.0000   1.0000   1.0000   1.0000
     1.0000   1.0000   1.0000   1.0000   1.0000   1.0000   1.0000   1.0000
     0.0000   0.0000   0.0000   0.0000   0.0000   0.0000   0.0000   0.0000
     0.0000   0.0000

          k = 0.0000 0.4781 0.2376 ( 37687 PWs)   bands (ev):

   -85.6747 -85.6742 -85.5937 -85.5927 -51.8005 -51.8001 -51.7738 -51.7729
   -51.6415 -51.6410 -51.5444 -51.5438 -51.5059 -51.5049 -51.4715 -51.4703
   -45.0275 -17.0642 -17.0112 -16.9885 -16.2525 -16.0994 -16.0800 -16.0134
   -13.9638 -13.9609 -13.9260 -13.8756 -13.8330 -13.7989 -13.7020 -13.6932
   -13.6532 -13.5504 -13.5279 -13.4923  -4.2965  -4.0077  -3.8086  -3.5744
    -2.3449  -2.1660  -2.0446  -1.9688  -1.6782  -1.6178  -1.4377  -1.3892
    -1.2721  -1.1767  -0.9760  -0.8258  -0.5591  -0.4533  -0.0518  -0.0427
     0.0413   0.0937   0.1236   0.1759   0.2377   0.5351   0.7202   0.7456
     0.8110   0.8834   0.9443   0.9654   1.0022   1.0231   1.2179   1.4036
     1.6318   1.7119   1.7469   1.8100   1.8858   1.9145   1.9872   2.0677
     2.2099   2.2366   2.2677   2.2862   2.4130   2.5348   2.6150   2.6901
     2.7413   2.8178   3.0296   3.1511   3.1733   3.3184   3.3585   3.4206
     3.5333   3.5646   3.6398   3.7035   3.7918   4.1105   4.2896   4.3375
     9.1329  10.8404  10.8733  11.3179  11.7186  12.1235  12.5213  12.5665
    12.8585  12.9567

     occupation numbers 
     1.0000   1.0000   1.0000   1.0000   1.0000   1.0000   1.0000   1.0000
     1.0000   1.0000   1.0000   1.0000   1.0000   1.0000   1.0000   1.0000
     1.0000   1.0000   1.0000   1.0000   1.0000   1.0000   1.0000   1.0000
     1.0000   1.0000   1.0000   1.0000   1.0000   1.0000   1.0000   1.0000
     1.0000   1.0000   1.0000   1.0000   1.0000   1.0000   1.0000   1.0000
     1.0000   1.0000   1.0000   1.0000   1.0000   1.0000   1.0000   1.0000
     1.0000   1.0000   1.0000   1.0000   1.0000   1.0000   1.0000   1.0000
     1.0000   1.0000   1.0000   1.0000   1.0000   1.0000   1.0000   1.0000
     1.0000   1.0000   1.0000   1.0000   1.0000   1.0000   1.0000   1.0000
     1.0000   1.0000   1.0000   1.0000   1.0000   1.0000   1.0000   1.0000
     1.0000   1.0000   1.0000   1.0000   1.0000   1.0000   1.0000   1.0000
     1.0000   1.0000   1.0000   1.0000   1.0000   1.0000   1.0000   1.0000
     1.0000   1.0000   1.0000   1.0000   1.0000   1.0000   1.0000   1.0000
     0.0000   0.0000   0.0000   0.0000   0.0000   0.0000   0.0000   0.0000
     0.0000   0.0000

          k = 0.0000 0.4781 0.4753 ( 37684 PWs)   bands (ev):

   -85.6747 -85.6742 -85.5937 -85.5927 -51.8006 -51.8001 -51.7738 -51.7729
   -51.6415 -51.6410 -51.5444 -51.5438 -51.5059 -51.5049 -51.4715 -51.4703
   -45.0275 -17.0620 -17.0110 -16.9925 -16.2134 -16.0823 -16.0631 -16.0035
[...]
     atom   10 type  3   force =     0.00776549    0.00024064    0.00404668
     atom   11 type  3   force =    -0.00555232    0.00093667    0.00257895
     atom   12 type  3   force =    -0.00776549   -0.00024064   -0.00404668
     atom   13 type  3   force =     0.00555232   -0.00093667   -0.00257895
     atom   14 type  3   force =     0.02846973   -0.00008984   -0.00597128
     atom   15 type  3   force =    -0.02509117   -0.00021006   -0.00912114
     atom   16 type  3   force =    -0.02846973    0.00008984    0.00597128
     atom   17 type  3   force =     0.02509117    0.00021006    0.00912114
     atom   18 type  3   force =    -0.00876336   -0.02285330    0.00772664
     atom   19 type  3   force =     0.01018879    0.02178989    0.00844614
     atom   20 type  3   force =     0.00944588   -0.02362727   -0.00740212
     atom   21 type  3   force =    -0.01081546    0.02172491   -0.00649427
     atom   22 type  3   force =     0.00876336    0.02285330   -0.00772664
     atom   23 type  3   force =    -0.01018879   -0.02178989   -0.00844614
     atom   24 type  3   force =    -0.00944588    0.02362727    0.00740212
     atom   25 type  3   force =     0.01081546   -0.02172491    0.00649427
     The non-local contrib.  to forces
     atom    1 type  2   force =     0.00000000    0.00000000    0.00000000
     atom    2 type  1   force =     0.12340732   -0.06636635    0.10012859
     atom    3 type  1   force =     0.05447898    0.00559128    0.08258299
     atom    4 type  1   force =    -0.12340732    0.06636635   -0.10012859
     atom    5 type  1   force =    -0.05447898   -0.00559128   -0.08258299
     atom    6 type  4   force =    -0.02879318    0.00459807   -0.06849083
     atom    7 type  4   force =     0.02969926    0.00122055   -0.05224669
     atom    8 type  4   force =     0.02879318   -0.00459807    0.06849083
     atom    9 type  4   force =    -0.02969926   -0.00122055    0.05224669
     atom   10 type  3   force =     0.34563854    0.02218619   -1.51228531
     atom   11 type  3   force =    -0.20953466    0.02205831   -1.49266956
     atom   12 type  3   force =    -0.34563854   -0.02218619    1.51228531
     atom   13 type  3   force =     0.20953466   -0.02205831    1.49266956
     atom   14 type  3   force =     1.22792908    0.00624584   -0.55430054
     atom   15 type  3   force =    -1.19868499   -0.01508744   -0.67140547
     atom   16 type  3   force =    -1.22792908   -0.00624584    0.55430054
     atom   17 type  3   force =     1.19868499    0.01508744    0.67140547
     atom   18 type  3   force =    -0.52354481   -1.10024117    0.70941624
     atom   19 type  3   force =     0.57340476    1.10418318    0.79030240
     atom   20 type  3   force =     0.56575724   -1.13048352   -0.71548533
     atom   21 type  3   force =    -0.63324441    1.11676847   -0.65280938
     atom   22 type  3   force =     0.52354481    1.10024117   -0.70941624
     atom   23 type  3   force =    -0.57340476   -1.10418318   -0.79030240
     atom   24 type  3   force =    -0.56575724    1.13048352    0.71548533
     atom   25 type  3   force =     0.63324441   -1.11676847    0.65280938
     The ionic contribution  to forces
     atom    1 type  2   force =    -0.00000568    0.00005293   -0.00003838
     atom    2 type  1   force =    -1.31619665    1.02245949   -0.68463250
     atom    3 type  1   force =    -9.87320979   -1.60172274   -0.65518424
     atom    4 type  1   force =     1.31596594   -1.02243024    0.68450169
     atom    5 type  1   force =     9.87331549    1.60195999    0.65513779
     atom    6 type  4   force =    -4.45580542    0.04682648    0.17503900
     atom    7 type  4   force =     1.56546423   -1.59561799    0.64612155
     atom    8 type  4   force =     4.45586087   -0.04682560   -0.17516760
     atom    9 type  4   force =    -1.56561275    1.59561177   -0.64577877
     atom   10 type  3   force =   -11.03877336   -0.08481809    2.84600587
     atom   11 type  3   force =     5.75137186   -2.49161434    2.02342851
     atom   12 type  3   force =    11.03893680    0.08480180   -2.84572720
     atom   13 type  3   force =    -5.75133404    2.49160056   -2.02379935
     atom   14 type  3   force =     0.46444076    2.60923160    3.74314258
     atom   15 type  3   force =    -2.83990716    0.09472066    5.99680364
     atom   16 type  3   force =    -0.46408237   -2.60923680   -3.74304868
     atom   17 type  3   force =     2.83977759   -0.09468178   -5.99677716
     atom   18 type  3   force =    -4.73445815    3.11355016   -2.44551915
     atom   19 type  3   force =     1.46089235   -2.65642827   -2.91255924
     atom   20 type  3   force =     5.16927966    3.25107672    2.58230753
     atom   21 type  3   force =     1.33785654   -2.88442886    0.62295790
     atom   22 type  3   force =     4.73445002   -3.11376881    2.44541108
     atom   23 type  3   force =    -1.46099370    2.65628718    2.91265714
     atom   24 type  3   force =    -5.16923258   -3.25106411   -2.58230179
     atom   25 type  3   force =    -1.33800046    2.88445830   -0.62298021
     The local contribution  to forces
     atom    1 type  2   force =    -0.00474321   -0.00186785   -0.00230886
     atom    2 type  1   force =     1.18066631   -0.96023640    0.57859455
     atom    3 type  1   force =     9.80296307    1.59176488    0.56825334
     atom    4 type  1   force =    -1.20360394    0.94876641   -0.58918545
     atom    5 type  1   force =    -9.82192517   -1.60064923   -0.57935827
     atom    6 type  4   force =     4.47410046   -0.05119045   -0.13287294
     atom    7 type  4   force =    -1.58510094    1.59240271   -0.61700584
     atom    8 type  4   force =    -4.47400910    0.05109279    0.13278627
     atom    9 type  4   force =     1.58515654   -1.59235220    0.61709252
     atom   10 type  3   force =    10.70291257    0.06170729   -1.34327581
     atom   11 type  3   force =    -5.55259075    2.46944749   -0.54317825
     atom   12 type  3   force =   -10.70669930   -0.06445350    1.34215774
     atom   13 type  3   force =     5.54733738   -2.47190054    0.53952340
     atom   14 type  3   force =    -1.65453866   -2.61682174   -3.20148883
     atom   15 type  3   force =     4.00086200   -0.08134547   -5.34250779
     atom   16 type  3   force =     1.65124977    2.61402218    3.19907068
     atom   17 type  3   force =    -4.00468601    0.07859292    5.33962065
     atom   18 type  3   force =     5.24177863   -2.04726875    1.74914985
     atom   19 type  3   force =    -2.02158517    1.58255528    2.13704564
     atom   20 type  3   force =    -5.72327028   -2.15566805   -1.88230988
     atom   21 type  3   force =    -0.72379213    1.79833906    0.01607450
     atom   22 type  3   force =    -5.24729696    2.04502772   -1.75160808
     atom   23 type  3   force =     2.01643702   -1.58504416   -2.13932754
     atom   24 type  3   force =     5.71763295    2.15309075    1.87941299
     atom   25 type  3   force =     0.71856189   -1.80061873   -0.01840143
     The core correction contribution to forces
     atom    1 type  2   force =     0.00000000    0.00000000    0.00000000
     atom    2 type  1   force =    -0.00139013    0.00079542   -0.00047343
     atom    3 type  1   force =     0.00006796   -0.00003824    0.00054682
     atom    4 type  1   force =     0.00216630   -0.00040903    0.00082094
     atom    5 type  1   force =     0.00056527    0.00035250   -0.00017891
     atom    6 type  4   force =     0.00249014   -0.00027628    0.00562277
     atom    7 type  4   force =    -0.00235043    0.00037345    0.00394916
     atom    8 type  4   force =    -0.00247314    0.00028282   -0.00561293
     atom    9 type  4   force =     0.00236950   -0.00036571   -0.00394640
     atom   10 type  3   force =    -0.00382152   -0.00021676    0.01318430
     atom   11 type  3   force =     0.00259695   -0.00018883    0.01298101
     atom   12 type  3   force =     0.00381714    0.00021525   -0.01318836
     atom   13 type  3   force =    -0.00260040    0.00018719   -0.01298517
     atom   14 type  3   force =    -0.01083379   -0.00014842    0.00551216
     atom   15 type  3   force =     0.01065390    0.00014465    0.00655884
     atom   16 type  3   force =     0.01082639    0.00014682   -0.00551309
     atom   17 type  3   force =    -0.01066282   -0.00014615   -0.00656070
     atom   18 type  3   force =     0.00469825    0.00986757   -0.00660712
     atom   19 type  3   force =    -0.00514738   -0.00984380   -0.00743380
     atom   20 type  3   force =    -0.00511967    0.01015838    0.00664360
     atom   21 type  3   force =     0.00567160   -0.01008463    0.00610318
     atom   22 type  3   force =    -0.00470257   -0.00987355    0.00660714
     atom   23 type  3   force =     0.00514102    0.00983756    0.00742946
     atom   24 type  3   force =     0.00511737   -0.01015982   -0.00664365
     atom   25 type  3   force =    -0.00567573    0.01008344   -0.00610755
     The Hubbard contrib.    to forces
     atom    1 type  2   force =     0.00000000    0.00000000    0.00000000
     atom    2 type  1   force =     0.00000000    0.00000000    0.00000000
     atom    3 type  1   force =     0.00000000    0.00000000    0.00000000
     atom    4 type  1   force =     0.00000000    0.00000000    0.00000000
     atom    5 type  1   force =     0.00000000    0.00000000    0.00000000
     atom    6 type  4   force =     0.00000000    0.00000000    0.00000000
     atom    7 type  4   force =     0.00000000    0.00000000    0.00000000
     atom    8 type  4   force =     0.00000000    0.00000000    0.00000000
     atom    9 type  4   force =     0.00000000    0.00000000    0.00000000
     atom   10 type  3   force =     0.00000000    0.00000000    0.00000000
     atom   11 type  3   force =     0.00000000    0.00000000    0.00000000
     atom   12 type  3   force =     0.00000000    0.00000000    0.00000000
     atom   13 type  3   force =     0.00000000    0.00000000    0.00000000
     atom   14 type  3   force =     0.00000000    0.00000000    0.00000000
     atom   15 type  3   force =     0.00000000    0.00000000    0.00000000
     atom   16 type  3   force =     0.00000000    0.00000000    0.00000000
     atom   17 type  3   force =     0.00000000    0.00000000    0.00000000
     atom   18 type  3   force =     0.00000000    0.00000000    0.00000000
     atom   19 type  3   force =     0.00000000    0.00000000    0.00000000
     atom   20 type  3   force =     0.00000000    0.00000000    0.00000000
     atom   21 type  3   force =     0.00000000    0.00000000    0.00000000
     atom   22 type  3   force =     0.00000000    0.00000000    0.00000000
     atom   23 type  3   force =     0.00000000    0.00000000    0.00000000
     atom   24 type  3   force =     0.00000000    0.00000000    0.00000000
     atom   25 type  3   force =     0.00000000    0.00000000    0.00000000
     The SCF correction term to forces
     atom    1 type  2   force =     0.00000000    0.00000000    0.00000000
     atom    2 type  1   force =    -0.00000210    0.00000075   -0.00000110
     atom    3 type  1   force =    -0.00000386   -0.00000006    0.00000168
     atom    4 type  1   force =     0.00000212   -0.00000073    0.00000111
     atom    5 type  1   force =     0.00000386    0.00000006   -0.00000168
     atom    6 type  4   force =    -0.00000215    0.00000008    0.00000086
     atom    7 type  4   force =    -0.00000221    0.00000003   -0.00000065
     atom    8 type  4   force =     0.00000215   -0.00000008   -0.00000086
     atom    9 type  4   force =     0.00000221   -0.00000003    0.00000065
     atom   10 type  3   force =    -0.00000458    0.00000001   -0.00000410
     atom   11 type  3   force =    -0.00000521   -0.00000019    0.00000232
     atom   12 type  3   force =     0.00000458   -0.00000001    0.00000410
     atom   13 type  3   force =     0.00000521    0.00000020   -0.00000232
     atom   14 type  3   force =     0.00000338   -0.00000030    0.00000076
     atom   15 type  3   force =     0.00000383   -0.00000005   -0.00000163
     atom   16 type  3   force =    -0.00000338    0.00000030   -0.00000076
     atom   17 type  3   force =    -0.00000383    0.00000005    0.00000163
     atom   18 type  3   force =    -0.00000266    0.00000606    0.00000368
     atom   19 type  3   force =    -0.00000370    0.00000539   -0.00000303
     atom   20 type  3   force =     0.00000265    0.00000614   -0.00000365
     atom   21 type  3   force =     0.00000379    0.00000515    0.00000272
     atom   22 type  3   force =     0.00000266   -0.00000606   -0.00000368
     atom   23 type  3   force =     0.00000370   -0.00000539    0.00000303
     atom   24 type  3   force =    -0.00000265   -0.00000614    0.00000365
     atom   25 type  3   force =    -0.00000378   -0.00000515   -0.00000272

     Total force =     0.102982     Total SCF correction =     0.000026


     Computing stress (Cartesian axis) and pressure


     negative rho (up, down):  0.000E+00 9.735E-04
          total   stress  (Ry/bohr**3)                   (kbar)     P=      -73.01
  -0.00076065  -0.00000256  -0.00001520         -111.90       -0.38       -2.24
  -0.00000256  -0.00052382  -0.00001196           -0.38      -77.06       -1.76
  -0.00001520  -0.00001196  -0.00020438           -2.24       -1.76      -30.07

     kinetic stress (kbar)  25407.09    -20.08      2.92
                              -20.08  25620.31      0.59
                                2.92      0.59  25469.93

     local   stress (kbar)  -4741.84  -2664.34    845.86
                            -2664.34 -14420.61    928.22
                              845.86    928.22  -7633.12

     nonloc. stress (kbar)  -6458.39     -1.24     -1.37
                               -1.24  -6409.62      1.70
                               -1.37      1.70  -6398.01

     hartree stress (kbar)  12285.13   1080.18   -327.89
                             1080.18  17491.56   -378.08
                             -327.89   -378.08  14139.20

     exc-cor stress (kbar)  -2697.38      1.42     -0.64
                                1.42  -2703.76     -0.33
                               -0.64     -0.33  -2701.93

     corecor stress (kbar)  -3012.14     -0.51      0.57
                               -0.51  -3011.88     -0.05
                                0.57     -0.05  -3014.37

     ewald   stress (kbar) -20894.36   1604.18   -521.69
                             1604.18 -16643.05   -553.81
                             -521.69   -553.81 -19891.77

     hubbard stress (kbar)      0.00      0.00      0.00
                                0.00      0.00      0.00
                                0.00      0.00      0.00

     DFT-D   stress (kbar)      0.00      0.00      0.00
                                0.00      0.00      0.00
                                0.00      0.00      0.00

     XDM     stress (kbar)      0.00      0.00      0.00
                                0.00      0.00      0.00
                                0.00      0.00      0.00

     dft-nl  stress (kbar)      0.00      0.00      0.00
                                0.00      0.00      0.00
                                0.00      0.00      0.00

     TS-vdW  stress (kbar)      0.00      0.00      0.00
                                0.00      0.00      0.00
                                0.00      0.00      0.00



     init_run     :   2041.73s CPU   2484.78s WALL (       1 calls)
     electrons    : 129298.68s CPU 161796.15s WALL (       1 calls)
     forces       :    273.92s CPU    345.40s WALL (       1 calls)
     stress       :   1058.50s CPU   1347.21s WALL (       1 calls)

     Called by init_run:
     wfcinit      :   2021.48s CPU   2459.91s WALL (       1 calls)
     wfcinit:atom :      1.88s CPU      2.17s WALL (     316 calls)
     wfcinit:wfcr :   2010.16s CPU   2446.20s WALL (     316 calls)
     potinit      :      7.78s CPU      9.73s WALL (       1 calls)
     hinit0       :      8.29s CPU      9.30s WALL (       1 calls)

     Called by electrons:
     c_bands      : 109357.97s CPU 137052.84s WALL (      26 calls)
     sum_band     :  19739.99s CPU  24476.24s WALL (      26 calls)
     v_of_rho     :     58.59s CPU     73.50s WALL (      27 calls)
     v_h          :      4.12s CPU      4.95s WALL (      27 calls)
     v_xc         :     58.89s CPU     73.91s WALL (      29 calls)
     newd         :     72.61s CPU    107.17s WALL (      27 calls)
     PAW_pot      :     26.29s CPU     31.86s WALL (      27 calls)
     mix_rho      :     34.30s CPU     43.31s WALL (      26 calls)

     Called by c_bands:
     init_us_2    :    171.44s CPU    230.51s WALL (   17380 calls)
     cegterg      : 108395.97s CPU 135811.62s WALL (    8216 calls)

     Called by sum_band:
     sum_band:wei :      0.46s CPU      0.68s WALL (      26 calls)
     sum_band:loo :  19550.61s CPU  24216.36s WALL (      26 calls)
     sum_band:buf :     48.88s CPU     55.01s WALL (    8216 calls)
     sum_band:ini :     72.08s CPU    100.50s WALL (    8216 calls)
     sum_band:cal :   1565.96s CPU   1929.51s WALL (    8216 calls)
     sum_band:bec :      6.40s CPU      6.76s WALL (    8216 calls)
     addusdens    :    165.85s CPU    231.27s WALL (      26 calls)
     addusd:skk   :      0.88s CPU      1.14s WALL (      78 calls)
     addusd:dgemm :     47.54s CPU     78.61s WALL (     156 calls)
     addusd:qvan2 :    115.68s CPU    147.24s WALL (     156 calls)

     Called by *egterg:
     cdiaghg      :   3087.04s CPU   3911.06s WALL (   35371 calls)
     cegterg:over :   5197.97s CPU   6428.50s WALL (   27155 calls)
     cegterg:upda :   1058.15s CPU   1349.87s WALL (   27155 calls)
     cegterg:last :   2554.39s CPU   3259.28s WALL (   16302 calls)
     h_psi        :  91893.60s CPU 115131.07s WALL (   35687 calls)
     s_psi        :   2268.04s CPU   2860.39s WALL (   35687 calls)
     g_psi        :     17.00s CPU     21.64s WALL (   27155 calls)

     Called by h_psi:
     h_psi:calbec :   4515.88s CPU   5588.71s WALL (   35687 calls)
     vloc_psi     :  84956.08s CPU 106418.05s WALL (   35687 calls)
     add_vuspsi   :   2347.51s CPU   3037.24s WALL (   35687 calls)

     General routines
     calbec       :   6431.10s CPU   7957.37s WALL (   45483 calls)
     fft          :     68.77s CPU     86.06s WALL (     713 calls)
     ffts         :      8.05s CPU      9.70s WALL (     106 calls)
     fftw         : 102418.70s CPU 128146.08s WALL ( 5437820 calls)
     interpolate  :      9.10s CPU     11.17s WALL (      54 calls)

     Parallel routines
     fft_scatt_xy :    530.66s CPU    551.00s WALL ( 5438639 calls)
     fft_scatt_yz :  99789.92s CPU 125449.19s WALL ( 5438639 calls)

     PAW routines
     PAW_pot      :     26.29s CPU     31.86s WALL (      27 calls)
     PAW_symme    :      2.78s CPU      3.22s WALL (      53 calls)

     PWSCF        :   1d12h51m CPU   1d22h 6m WALL


   This run was terminated on:  15: 3:39  22Dec2022            

=------------------------------------------------------------------------------=
   JOB DONE.
=------------------------------------------------------------------------------=
Note: The following floating-point exceptions are signalling: IEEE_UNDERFLOW_FLAG IEEE_DENORMAL
Note: The following floating-point exceptions are signalling: IEEE_DENORMAL
Note: The following floating-point exceptions are signalling: IEEE_DENORMAL
Note: The following floating-point exceptions are signalling: IEEE_DENORMAL
Note: The following floating-point exceptions are signalling: IEEE_DENORMAL
Note: The following floating-point exceptions are signalling: IEEE_DENORMAL
Note: The following floating-point exceptions are signalling: IEEE_DENORMAL
Note: The following floating-point exceptions are signalling: IEEE_INVALID_FLAG IEEE_DENORMAL
Note: The following floating-point exceptions are signalling: IEEE_DENORMAL
