
     Program PWSCF v.6.7MaX starts on 19Dec2022 at  3:33:14 

     This program is part of the open-source Quantum ESPRESSO suite
     for quantum simulation of materials; please cite
         "P. Giannozzi et al., J. Phys.:Condens. Matter 21 395502 (2009);
         "P. Giannozzi et al., J. Phys.:Condens. Matter 29 465901 (2017);
          URL http://www.quantum-espresso.org", 
     in publications or presentations arising from this work. More details at
     http://www.quantum-espresso.org/quote

     Parallel version (MPI), running on    12 processors

     MPI processes distributed on     1 nodes
     R & G space division:  proc/nbgrp/npool/nimage =      12
     Reading input from scale_1da-00.in

     Current dimensions of program PWSCF are:
     Max number of different atomic species (ntypx) = 10
     Max number of k-points (npk) =  40000
     Max angular momentum in pseudopotentials (lmaxx) =  3
     Message from routine read_pp_mesh:
     mesh size missing, using the one in header
     file Fe.pbe-spn-kjpaw_psl.0.2.1.UPF: wavefunction(s)  3D renormalized
     file O.pbe-n-kjpaw_psl.0.1.UPF: wavefunction(s)  2P renormalized

     Subspace diagonalization in iterative solution of the eigenvalue problem:
     a serial algorithm will be used

     Message from routine setup:
     using ibrav=0 with symmetry is DISCOURAGED, use correct ibrav instead

     Parallelization info
     --------------------
     sticks:   dense  smooth     PW     G-vecs:    dense   smooth      PW
     Min        1572     583    157               102512    23116    3251
     Max        1573     584    159               102513    23117    3252
     Sum       18873    6997   1891              1230153   277403   39017



     bravais-lattice index     =            0
     lattice parameter (alat)  =      18.6818  a.u.
     unit-cell volume          =    2052.3399 (a.u.)^3
     number of atoms/cell      =           25
     number of atomic types    =            4
     number of electrons       =       189.00
     number of Kohn-Sham states=          114
     kinetic-energy cutoff     =     100.0000  Ry
     charge density cutoff     =    1080.0000  Ry
     scf convergence threshold =      2.0E-10
     mixing beta               =       0.4000
     number of iterations used =            8  plain     mixing
     Exchange-correlation= PBE
                           (   1   4   3   4   0   0   0)

     celldm(1)=  18.681804  celldm(2)=   0.000000  celldm(3)=   0.000000
     celldm(4)=   0.000000  celldm(5)=   0.000000  celldm(6)=   0.000000

     crystal axes: (cart. coord. in units of alat)
               a(1) = (   1.000000   0.000000   0.000000 )  
               a(2) = (   0.000000   0.629042   0.000000 )  
               a(3) = (   0.000000   0.000000   0.500395 )  

     reciprocal axes: (cart. coord. in units 2 pi/alat)
               b(1) = (  1.000000  0.000000  0.000000 )  
               b(2) = (  0.000000  1.589719  0.000000 )  
               b(3) = (  0.000000  0.000000  1.998420 )  


     PseudoPot. # 1 for Fe read from file:
     /opt/QEpot/SSSP_precision_pseudos/Fe.pbe-spn-kjpaw_psl.0.2.1.UPF
     MD5 check sum: e86618425769142926afa95317d90200
     Pseudo is Projector augmented-wave + core cor, Zval = 16.0
     Generated using "atomic" code by A. Dal Corso  v.5.0.99 svn rev. 10869
     Shape of augmentation charge: PSQ
     Using radial grid of 1191 points,  6 beta functions with: 
                l(1) =   0
                l(2) =   0
                l(3) =   1
                l(4) =   1
                l(5) =   2
                l(6) =   2
     Q(r) pseudized with 0 coefficients 


     PseudoPot. # 2 for Na read from file:
     /opt/QEpot/SSSP_precision_pseudos/Na_ONCV_PBE-1.0.oncvpsp.upf
     MD5 check sum: 24a298df0a6742ae313db96548fdb2a4
     Pseudo is Norm-conserving, Zval =  9.0
     Generated using ONCVPSP code by D. R. Hamann
     Using radial grid of 1992 points,  4 beta functions with: 
                l(1) =   0
                l(2) =   0
                l(3) =   1
                l(4) =   1

     PseudoPot. # 3 for O  read from file:
     /opt/QEpot/SSSP_precision_pseudos/O.pbe-n-kjpaw_psl.0.1.UPF
     MD5 check sum: 0234752ac141de4415c5fc33072bef88
     Pseudo is Projector augmented-wave + core cor, Zval =  6.0
     Generated using "atomic" code by A. Dal Corso  v.5.0.99 svn rev. 10869
     Shape of augmentation charge: BESSEL
     Using radial grid of 1095 points,  4 beta functions with: 
                l(1) =   0
                l(2) =   0
                l(3) =   1
                l(4) =   1
     Q(r) pseudized with 0 coefficients 


     PseudoPot. # 4 for P  read from file:
     /opt/QEpot/SSSP_precision_pseudos/P.pbe-n-rrkjus_psl.1.0.0.UPF
     MD5 check sum: 8b930f418f0a4573dca56cd030ffe088
     Pseudo is Ultrasoft + core correction, Zval =  5.0
     Generated using "atomic" code by A. Dal Corso  v.5.1
     Using radial grid of 1147 points,  6 beta functions with: 
                l(1) =   0
                l(2) =   0
                l(3) =   1
                l(4) =   1
                l(5) =   2
                l(6) =   2
     Q(r) pseudized with 0 coefficients 


     atomic species   valence    mass     pseudopotential
        Fe            16.00    55.84500     Fe( 1.00)
        Na             9.00    22.98977     Na( 1.00)
        O              6.00    15.99940     O ( 1.00)
        P              5.00    30.97376     P ( 1.00)

     Starting magnetic structure 
     atomic species   magnetization
        Fe           0.312
        Na           0.000
        O            0.000
        P            0.000

      2 Sym. Ops., with inversion, found


                                    s                        frac. trans.

      isym =  1     identity                                     

 cryst.   s( 1) = (     1          0          0      )
                  (     0          1          0      )
                  (     0          0          1      )

 cart.    s( 1) = (  1.0000000  0.0000000  0.0000000 )
                  (  0.0000000  1.0000000  0.0000000 )
                  (  0.0000000  0.0000000  1.0000000 )


      isym =  2     inversion                                    

 cryst.   s( 2) = (    -1          0          0      )
                  (     0         -1          0      )
                  (     0          0         -1      )

 cart.    s( 2) = ( -1.0000000  0.0000000  0.0000000 )
                  (  0.0000000 -1.0000000  0.0000000 )
                  (  0.0000000  0.0000000 -1.0000000 )


   Cartesian axes

     site n.     atom                  positions (alat units)
         1           Na  tau(   1) = (   0.5000030   0.3145223   0.2501991  )
         2           Fe  tau(   2) = (   0.2766340   0.4746386   0.4981645  )
         3           Fe  tau(   3) = (   0.2132450   0.1550312   0.2452207  )
         4           Fe  tau(   4) = (   0.7233720   0.1544065   0.0022338  )
         5           Fe  tau(   5) = (   0.7867600   0.4740134   0.2551776  )
         6           P   tau(   6) = (   0.1084050   0.4710581   0.2227244  )
         7           P   tau(   7) = (   0.3919000   0.1547110   0.4730401  )
         8           P   tau(   8) = (   0.8916010   0.1579870   0.2776743  )
         9           P   tau(   9) = (   0.6081070   0.4743342   0.0273561  )
        10           O   tau(  10) = (   0.1318760   0.4707184   0.3765669  )
        11           O   tau(  11) = (   0.3711480   0.1596936   0.1272815  )
        12           O   tau(  12) = (   0.8681290   0.1583267   0.1238308  )
        13           O   tau(  13) = (   0.6288580   0.4693515   0.3731182  )
        14           O   tau(  14) = (   0.4620270   0.4686338   0.0614370  )
        15           O   tau(  15) = (   0.0373160   0.1582582   0.3081684  )
        16           O   tau(  16) = (   0.5379780   0.1604114   0.4389612  )
        17           O   tau(  17) = (   0.9626900   0.4707870   0.1922298  )
        18           O   tau(  18) = (   0.1786770   0.5944114   0.1519360  )
        19           O   tau(  19) = (   0.3223210   0.0313760   0.4045956  )
        20           O   tau(  20) = (   0.8194080   0.2791349   0.3493199  )
        21           O   tau(  21) = (   0.6766380   0.3520553   0.1024279  )
        22           O   tau(  22) = (   0.8213290   0.0346344   0.3484622  )
        23           O   tau(  23) = (   0.6776850   0.5976698   0.0958027  )
        24           O   tau(  24) = (   0.1805980   0.3499103   0.1510783  )
        25           O   tau(  25) = (   0.3233680   0.2769898   0.3979709  )

   Crystallographic axes

     site n.     atom                  positions (cryst. coord.)
         1           Na  tau(   1) = (  0.5000030  0.5000020  0.5000030  )
         2           Fe  tau(   2) = (  0.2766340  0.7545420  0.9955420  )
         3           Fe  tau(   3) = (  0.2132450  0.2464560  0.4900540  )
         4           Fe  tau(   4) = (  0.7233720  0.2454630  0.0044640  )
         5           Fe  tau(   5) = (  0.7867600  0.7535480  0.5099520  )
         6           P   tau(   6) = (  0.1084050  0.7488500  0.4450970  )
         7           P   tau(   7) = (  0.3919000  0.2459470  0.9453330  )
         8           P   tau(   8) = (  0.8916010  0.2511550  0.5549100  )
         9           P   tau(   9) = (  0.6081070  0.7540580  0.0546690  )
        10           O   tau(  10) = (  0.1318760  0.7483100  0.7525390  )
        11           O   tau(  11) = (  0.3711480  0.2538680  0.2543620  )
        12           O   tau(  12) = (  0.8681290  0.2516950  0.2474660  )
        13           O   tau(  13) = (  0.6288580  0.7461370  0.7456470  )
        14           O   tau(  14) = (  0.4620270  0.7449960  0.1227770  )
        15           O   tau(  15) = (  0.0373160  0.2515860  0.6158500  )
        16           O   tau(  16) = (  0.5379780  0.2550090  0.8772290  )
        17           O   tau(  17) = (  0.9626900  0.7484190  0.3841560  )
        18           O   tau(  18) = (  0.1786770  0.9449470  0.3036320  )
        19           O   tau(  19) = (  0.3223210  0.0498790  0.8085520  )
        20           O   tau(  20) = (  0.8194080  0.4437460  0.6980880  )
        21           O   tau(  21) = (  0.6766380  0.5596690  0.2046940  )
        22           O   tau(  22) = (  0.8213290  0.0550590  0.6963740  )
        23           O   tau(  23) = (  0.6776850  0.9501270  0.1914540  )
        24           O   tau(  24) = (  0.1805980  0.5562590  0.3019180  )
        25           O   tau(  25) = (  0.3233680  0.4403360  0.7953130  )

     number of k points=   158  Marzari-Vanderbilt smearing, width (Ry)=  0.0073
                       cart. coord. in units 2pi/alat
        k(    1) = (   0.0000000   0.0000000   0.0000000), wk =   0.0031746
        k(    2) = (   0.0000000   0.0000000   0.2220467), wk =   0.0063492
        k(    3) = (   0.0000000   0.0000000   0.4440934), wk =   0.0063492
        k(    4) = (   0.0000000   0.0000000   0.6661401), wk =   0.0063492
        k(    5) = (   0.0000000   0.0000000   0.8881868), wk =   0.0063492
        k(    6) = (   0.0000000   0.2271027   0.0000000), wk =   0.0063492
        k(    7) = (   0.0000000   0.2271027   0.2220467), wk =   0.0063492
        k(    8) = (   0.0000000   0.2271027   0.4440934), wk =   0.0063492
        k(    9) = (   0.0000000   0.2271027   0.6661401), wk =   0.0063492
        k(   10) = (   0.0000000   0.2271027   0.8881868), wk =   0.0063492
        k(   11) = (   0.0000000   0.4542054   0.0000000), wk =   0.0063492
        k(   12) = (   0.0000000   0.4542054   0.2220467), wk =   0.0063492
        k(   13) = (   0.0000000   0.4542054   0.4440934), wk =   0.0063492
        k(   14) = (   0.0000000   0.4542054   0.6661401), wk =   0.0063492
        k(   15) = (   0.0000000   0.4542054   0.8881868), wk =   0.0063492
        k(   16) = (   0.0000000   0.6813081   0.0000000), wk =   0.0063492
        k(   17) = (   0.0000000   0.6813081   0.2220467), wk =   0.0063492
        k(   18) = (   0.0000000   0.6813081   0.4440934), wk =   0.0063492
        k(   19) = (   0.0000000   0.6813081   0.6661401), wk =   0.0063492
        k(   20) = (   0.0000000   0.6813081   0.8881868), wk =   0.0063492
        k(   21) = (   0.2000000   0.0000000   0.0000000), wk =   0.0063492
        k(   22) = (   0.2000000   0.0000000   0.2220467), wk =   0.0063492
        k(   23) = (   0.2000000   0.0000000   0.4440934), wk =   0.0063492
        k(   24) = (   0.2000000   0.0000000   0.6661401), wk =   0.0063492
        k(   25) = (   0.2000000   0.0000000   0.8881868), wk =   0.0063492
        k(   26) = (   0.2000000   0.2271027   0.0000000), wk =   0.0063492
        k(   27) = (   0.2000000   0.2271027   0.2220467), wk =   0.0063492
        k(   28) = (   0.2000000   0.2271027   0.4440934), wk =   0.0063492
        k(   29) = (   0.2000000   0.2271027   0.6661401), wk =   0.0063492
        k(   30) = (   0.2000000   0.2271027   0.8881868), wk =   0.0063492
        k(   31) = (   0.2000000   0.4542054   0.0000000), wk =   0.0063492
        k(   32) = (   0.2000000   0.4542054   0.2220467), wk =   0.0063492
        k(   33) = (   0.2000000   0.4542054   0.4440934), wk =   0.0063492
        k(   34) = (   0.2000000   0.4542054   0.6661401), wk =   0.0063492
        k(   35) = (   0.2000000   0.4542054   0.8881868), wk =   0.0063492
        k(   36) = (   0.2000000   0.6813081   0.0000000), wk =   0.0063492
        k(   37) = (   0.2000000   0.6813081   0.2220467), wk =   0.0063492
        k(   38) = (   0.2000000   0.6813081   0.4440934), wk =   0.0063492
        k(   39) = (   0.2000000   0.6813081   0.6661401), wk =   0.0063492
        k(   40) = (   0.2000000   0.6813081   0.8881868), wk =   0.0063492
        k(   41) = (   0.4000000   0.0000000   0.0000000), wk =   0.0063492
        k(   42) = (   0.4000000   0.0000000   0.2220467), wk =   0.0063492
        k(   43) = (   0.4000000   0.0000000   0.4440934), wk =   0.0063492
        k(   44) = (   0.4000000   0.0000000   0.6661401), wk =   0.0063492
        k(   45) = (   0.4000000   0.0000000   0.8881868), wk =   0.0063492
        k(   46) = (   0.4000000   0.2271027   0.0000000), wk =   0.0063492
        k(   47) = (   0.4000000   0.2271027   0.2220467), wk =   0.0063492
        k(   48) = (   0.4000000   0.2271027   0.4440934), wk =   0.0063492
        k(   49) = (   0.4000000   0.2271027   0.6661401), wk =   0.0063492
        k(   50) = (   0.4000000   0.2271027   0.8881868), wk =   0.0063492
        k(   51) = (   0.4000000   0.4542054   0.0000000), wk =   0.0063492
        k(   52) = (   0.4000000   0.4542054   0.2220467), wk =   0.0063492
        k(   53) = (   0.4000000   0.4542054   0.4440934), wk =   0.0063492
        k(   54) = (   0.4000000   0.4542054   0.6661401), wk =   0.0063492
        k(   55) = (   0.4000000   0.4542054   0.8881868), wk =   0.0063492
        k(   56) = (   0.4000000   0.6813081   0.0000000), wk =   0.0063492
        k(   57) = (   0.4000000   0.6813081   0.2220467), wk =   0.0063492
        k(   58) = (   0.4000000   0.6813081   0.4440934), wk =   0.0063492
        k(   59) = (   0.4000000   0.6813081   0.6661401), wk =   0.0063492
        k(   60) = (   0.4000000   0.6813081   0.8881868), wk =   0.0063492
        k(   61) = (   0.0000000   0.2271027  -0.2220467), wk =   0.0063492
        k(   62) = (   0.0000000   0.2271027  -0.4440934), wk =   0.0063492
        k(   63) = (   0.0000000   0.2271027  -0.6661401), wk =   0.0063492
        k(   64) = (   0.0000000   0.2271027  -0.8881868), wk =   0.0063492
        k(   65) = (   0.0000000   0.4542054  -0.2220467), wk =   0.0063492
        k(   66) = (   0.0000000   0.4542054  -0.4440934), wk =   0.0063492
        k(   67) = (   0.0000000   0.4542054  -0.6661401), wk =   0.0063492
        k(   68) = (   0.0000000   0.4542054  -0.8881868), wk =   0.0063492
        k(   69) = (   0.0000000   0.6813081  -0.2220467), wk =   0.0063492
        k(   70) = (   0.0000000   0.6813081  -0.4440934), wk =   0.0063492
        k(   71) = (   0.0000000   0.6813081  -0.6661401), wk =   0.0063492
        k(   72) = (   0.0000000   0.6813081  -0.8881868), wk =   0.0063492
        k(   73) = (   0.2000000   0.0000000  -0.2220467), wk =   0.0063492
        k(   74) = (   0.2000000   0.0000000  -0.4440934), wk =   0.0063492
        k(   75) = (   0.2000000   0.0000000  -0.6661401), wk =   0.0063492
        k(   76) = (   0.2000000   0.0000000  -0.8881868), wk =   0.0063492
        k(   77) = (  -0.2000000   0.2271027   0.0000000), wk =   0.0063492
        k(   78) = (  -0.2000000   0.2271027  -0.2220467), wk =   0.0063492
        k(   79) = (   0.2000000  -0.2271027  -0.2220467), wk =   0.0063492
        k(   80) = (  -0.2000000  -0.2271027   0.2220467), wk =   0.0063492
        k(   81) = (  -0.2000000   0.2271027  -0.4440934), wk =   0.0063492
        k(   82) = (   0.2000000  -0.2271027  -0.4440934), wk =   0.0063492
        k(   83) = (  -0.2000000  -0.2271027   0.4440934), wk =   0.0063492
        k(   84) = (  -0.2000000   0.2271027  -0.6661401), wk =   0.0063492
        k(   85) = (   0.2000000  -0.2271027  -0.6661401), wk =   0.0063492
        k(   86) = (  -0.2000000  -0.2271027   0.6661401), wk =   0.0063492
        k(   87) = (  -0.2000000   0.2271027  -0.8881868), wk =   0.0063492
        k(   88) = (   0.2000000  -0.2271027  -0.8881868), wk =   0.0063492
        k(   89) = (  -0.2000000  -0.2271027   0.8881868), wk =   0.0063492
        k(   90) = (  -0.2000000   0.4542054   0.0000000), wk =   0.0063492
        k(   91) = (  -0.2000000   0.4542054  -0.2220467), wk =   0.0063492
        k(   92) = (   0.2000000  -0.4542054  -0.2220467), wk =   0.0063492
        k(   93) = (  -0.2000000  -0.4542054   0.2220467), wk =   0.0063492
        k(   94) = (  -0.2000000   0.4542054  -0.4440934), wk =   0.0063492
        k(   95) = (   0.2000000  -0.4542054  -0.4440934), wk =   0.0063492
        k(   96) = (  -0.2000000  -0.4542054   0.4440934), wk =   0.0063492
        k(   97) = (  -0.2000000   0.4542054  -0.6661401), wk =   0.0063492
        k(   98) = (   0.2000000  -0.4542054  -0.6661401), wk =   0.0063492
        k(   99) = (  -0.2000000  -0.4542054   0.6661401), wk =   0.0063492
        k(  100) = (  -0.2000000   0.4542054  -0.8881868), wk =   0.0063492
        k(  101) = (   0.2000000  -0.4542054  -0.8881868), wk =   0.0063492
        k(  102) = (  -0.2000000  -0.4542054   0.8881868), wk =   0.0063492
        k(  103) = (  -0.2000000   0.6813081   0.0000000), wk =   0.0063492
        k(  104) = (  -0.2000000   0.6813081  -0.2220467), wk =   0.0063492
        k(  105) = (   0.2000000  -0.6813081  -0.2220467), wk =   0.0063492
        k(  106) = (  -0.2000000  -0.6813081   0.2220467), wk =   0.0063492
        k(  107) = (  -0.2000000   0.6813081  -0.4440934), wk =   0.0063492
        k(  108) = (   0.2000000  -0.6813081  -0.4440934), wk =   0.0063492
        k(  109) = (  -0.2000000  -0.6813081   0.4440934), wk =   0.0063492
        k(  110) = (  -0.2000000   0.6813081  -0.6661401), wk =   0.0063492
        k(  111) = (   0.2000000  -0.6813081  -0.6661401), wk =   0.0063492
        k(  112) = (  -0.2000000  -0.6813081   0.6661401), wk =   0.0063492
        k(  113) = (  -0.2000000   0.6813081  -0.8881868), wk =   0.0063492
        k(  114) = (   0.2000000  -0.6813081  -0.8881868), wk =   0.0063492
        k(  115) = (  -0.2000000  -0.6813081   0.8881868), wk =   0.0063492
        k(  116) = (   0.4000000   0.0000000  -0.2220467), wk =   0.0063492
        k(  117) = (   0.4000000   0.0000000  -0.4440934), wk =   0.0063492
        k(  118) = (   0.4000000   0.0000000  -0.6661401), wk =   0.0063492
        k(  119) = (   0.4000000   0.0000000  -0.8881868), wk =   0.0063492
        k(  120) = (  -0.4000000   0.2271027   0.0000000), wk =   0.0063492
        k(  121) = (  -0.4000000   0.2271027  -0.2220467), wk =   0.0063492
        k(  122) = (   0.4000000  -0.2271027  -0.2220467), wk =   0.0063492
        k(  123) = (  -0.4000000  -0.2271027   0.2220467), wk =   0.0063492
        k(  124) = (  -0.4000000   0.2271027  -0.4440934), wk =   0.0063492
        k(  125) = (   0.4000000  -0.2271027  -0.4440934), wk =   0.0063492
        k(  126) = (  -0.4000000  -0.2271027   0.4440934), wk =   0.0063492
        k(  127) = (  -0.4000000   0.2271027  -0.6661401), wk =   0.0063492
        k(  128) = (   0.4000000  -0.2271027  -0.6661401), wk =   0.0063492
        k(  129) = (  -0.4000000  -0.2271027   0.6661401), wk =   0.0063492
        k(  130) = (  -0.4000000   0.2271027  -0.8881868), wk =   0.0063492
        k(  131) = (   0.4000000  -0.2271027  -0.8881868), wk =   0.0063492
        k(  132) = (  -0.4000000  -0.2271027   0.8881868), wk =   0.0063492
        k(  133) = (  -0.4000000   0.4542054   0.0000000), wk =   0.0063492
        k(  134) = (  -0.4000000   0.4542054  -0.2220467), wk =   0.0063492
        k(  135) = (   0.4000000  -0.4542054  -0.2220467), wk =   0.0063492
        k(  136) = (  -0.4000000  -0.4542054   0.2220467), wk =   0.0063492
        k(  137) = (  -0.4000000   0.4542054  -0.4440934), wk =   0.0063492
        k(  138) = (   0.4000000  -0.4542054  -0.4440934), wk =   0.0063492
        k(  139) = (  -0.4000000  -0.4542054   0.4440934), wk =   0.0063492
        k(  140) = (  -0.4000000   0.4542054  -0.6661401), wk =   0.0063492
        k(  141) = (   0.4000000  -0.4542054  -0.6661401), wk =   0.0063492
        k(  142) = (  -0.4000000  -0.4542054   0.6661401), wk =   0.0063492
        k(  143) = (  -0.4000000   0.4542054  -0.8881868), wk =   0.0063492
        k(  144) = (   0.4000000  -0.4542054  -0.8881868), wk =   0.0063492
        k(  145) = (  -0.4000000  -0.4542054   0.8881868), wk =   0.0063492
        k(  146) = (  -0.4000000   0.6813081   0.0000000), wk =   0.0063492
        k(  147) = (  -0.4000000   0.6813081  -0.2220467), wk =   0.0063492
        k(  148) = (   0.4000000  -0.6813081  -0.2220467), wk =   0.0063492
        k(  149) = (  -0.4000000  -0.6813081   0.2220467), wk =   0.0063492
        k(  150) = (  -0.4000000   0.6813081  -0.4440934), wk =   0.0063492
        k(  151) = (   0.4000000  -0.6813081  -0.4440934), wk =   0.0063492
        k(  152) = (  -0.4000000  -0.6813081   0.4440934), wk =   0.0063492
        k(  153) = (  -0.4000000   0.6813081  -0.6661401), wk =   0.0063492
        k(  154) = (   0.4000000  -0.6813081  -0.6661401), wk =   0.0063492
        k(  155) = (  -0.4000000  -0.6813081   0.6661401), wk =   0.0063492
        k(  156) = (  -0.4000000   0.6813081  -0.8881868), wk =   0.0063492
        k(  157) = (   0.4000000  -0.6813081  -0.8881868), wk =   0.0063492
        k(  158) = (  -0.4000000  -0.6813081   0.8881868), wk =   0.0063492

                       cryst. coord.
        k(    1) = (   0.0000000   0.0000000   0.0000000), wk =   0.0031746
        k(    2) = (   0.0000000   0.0000000   0.1111111), wk =   0.0063492
        k(    3) = (   0.0000000   0.0000000   0.2222222), wk =   0.0063492
        k(    4) = (   0.0000000   0.0000000   0.3333333), wk =   0.0063492
        k(    5) = (   0.0000000   0.0000000   0.4444444), wk =   0.0063492
        k(    6) = (   0.0000000   0.1428571   0.0000000), wk =   0.0063492
        k(    7) = (   0.0000000   0.1428571   0.1111111), wk =   0.0063492
        k(    8) = (   0.0000000   0.1428571   0.2222222), wk =   0.0063492
        k(    9) = (   0.0000000   0.1428571   0.3333333), wk =   0.0063492
        k(   10) = (   0.0000000   0.1428571   0.4444444), wk =   0.0063492
        k(   11) = (   0.0000000   0.2857143   0.0000000), wk =   0.0063492
        k(   12) = (   0.0000000   0.2857143   0.1111111), wk =   0.0063492
        k(   13) = (   0.0000000   0.2857143   0.2222222), wk =   0.0063492
        k(   14) = (   0.0000000   0.2857143   0.3333333), wk =   0.0063492
        k(   15) = (   0.0000000   0.2857143   0.4444444), wk =   0.0063492
        k(   16) = (   0.0000000   0.4285714   0.0000000), wk =   0.0063492
        k(   17) = (   0.0000000   0.4285714   0.1111111), wk =   0.0063492
        k(   18) = (   0.0000000   0.4285714   0.2222222), wk =   0.0063492
        k(   19) = (   0.0000000   0.4285714   0.3333333), wk =   0.0063492
        k(   20) = (   0.0000000   0.4285714   0.4444444), wk =   0.0063492
        k(   21) = (   0.2000000   0.0000000   0.0000000), wk =   0.0063492
        k(   22) = (   0.2000000   0.0000000   0.1111111), wk =   0.0063492
        k(   23) = (   0.2000000   0.0000000   0.2222222), wk =   0.0063492
        k(   24) = (   0.2000000   0.0000000   0.3333333), wk =   0.0063492
        k(   25) = (   0.2000000   0.0000000   0.4444444), wk =   0.0063492
        k(   26) = (   0.2000000   0.1428571   0.0000000), wk =   0.0063492
        k(   27) = (   0.2000000   0.1428571   0.1111111), wk =   0.0063492
        k(   28) = (   0.2000000   0.1428571   0.2222222), wk =   0.0063492
        k(   29) = (   0.2000000   0.1428571   0.3333333), wk =   0.0063492
        k(   30) = (   0.2000000   0.1428571   0.4444444), wk =   0.0063492
        k(   31) = (   0.2000000   0.2857143   0.0000000), wk =   0.0063492
        k(   32) = (   0.2000000   0.2857143   0.1111111), wk =   0.0063492
        k(   33) = (   0.2000000   0.2857143   0.2222222), wk =   0.0063492
        k(   34) = (   0.2000000   0.2857143   0.3333333), wk =   0.0063492
        k(   35) = (   0.2000000   0.2857143   0.4444444), wk =   0.0063492
        k(   36) = (   0.2000000   0.4285714   0.0000000), wk =   0.0063492
        k(   37) = (   0.2000000   0.4285714   0.1111111), wk =   0.0063492
        k(   38) = (   0.2000000   0.4285714   0.2222222), wk =   0.0063492
        k(   39) = (   0.2000000   0.4285714   0.3333333), wk =   0.0063492
        k(   40) = (   0.2000000   0.4285714   0.4444444), wk =   0.0063492
        k(   41) = (   0.4000000   0.0000000   0.0000000), wk =   0.0063492
        k(   42) = (   0.4000000   0.0000000   0.1111111), wk =   0.0063492
        k(   43) = (   0.4000000   0.0000000   0.2222222), wk =   0.0063492
        k(   44) = (   0.4000000   0.0000000   0.3333333), wk =   0.0063492
        k(   45) = (   0.4000000   0.0000000   0.4444444), wk =   0.0063492
        k(   46) = (   0.4000000   0.1428571   0.0000000), wk =   0.0063492
        k(   47) = (   0.4000000   0.1428571   0.1111111), wk =   0.0063492
        k(   48) = (   0.4000000   0.1428571   0.2222222), wk =   0.0063492
        k(   49) = (   0.4000000   0.1428571   0.3333333), wk =   0.0063492
        k(   50) = (   0.4000000   0.1428571   0.4444444), wk =   0.0063492
        k(   51) = (   0.4000000   0.2857143   0.0000000), wk =   0.0063492
        k(   52) = (   0.4000000   0.2857143   0.1111111), wk =   0.0063492
        k(   53) = (   0.4000000   0.2857143   0.2222222), wk =   0.0063492
        k(   54) = (   0.4000000   0.2857143   0.3333333), wk =   0.0063492
        k(   55) = (   0.4000000   0.2857143   0.4444444), wk =   0.0063492
        k(   56) = (   0.4000000   0.4285714   0.0000000), wk =   0.0063492
        k(   57) = (   0.4000000   0.4285714   0.1111111), wk =   0.0063492
        k(   58) = (   0.4000000   0.4285714   0.2222222), wk =   0.0063492
        k(   59) = (   0.4000000   0.4285714   0.3333333), wk =   0.0063492
        k(   60) = (   0.4000000   0.4285714   0.4444444), wk =   0.0063492
        k(   61) = (   0.0000000   0.1428571  -0.1111111), wk =   0.0063492
        k(   62) = (   0.0000000   0.1428571  -0.2222222), wk =   0.0063492
        k(   63) = (   0.0000000   0.1428571  -0.3333333), wk =   0.0063492
        k(   64) = (   0.0000000   0.1428571  -0.4444444), wk =   0.0063492
        k(   65) = (   0.0000000   0.2857143  -0.1111111), wk =   0.0063492
        k(   66) = (   0.0000000   0.2857143  -0.2222222), wk =   0.0063492
        k(   67) = (   0.0000000   0.2857143  -0.3333333), wk =   0.0063492
        k(   68) = (   0.0000000   0.2857143  -0.4444444), wk =   0.0063492
        k(   69) = (   0.0000000   0.4285714  -0.1111111), wk =   0.0063492
        k(   70) = (   0.0000000   0.4285714  -0.2222222), wk =   0.0063492
        k(   71) = (   0.0000000   0.4285714  -0.3333333), wk =   0.0063492
        k(   72) = (   0.0000000   0.4285714  -0.4444444), wk =   0.0063492
        k(   73) = (   0.2000000   0.0000000  -0.1111111), wk =   0.0063492
        k(   74) = (   0.2000000   0.0000000  -0.2222222), wk =   0.0063492
        k(   75) = (   0.2000000   0.0000000  -0.3333333), wk =   0.0063492
        k(   76) = (   0.2000000   0.0000000  -0.4444444), wk =   0.0063492
        k(   77) = (  -0.2000000   0.1428571   0.0000000), wk =   0.0063492
        k(   78) = (  -0.2000000   0.1428571  -0.1111111), wk =   0.0063492
        k(   79) = (   0.2000000  -0.1428571  -0.1111111), wk =   0.0063492
        k(   80) = (  -0.2000000  -0.1428571   0.1111111), wk =   0.0063492
        k(   81) = (  -0.2000000   0.1428571  -0.2222222), wk =   0.0063492
        k(   82) = (   0.2000000  -0.1428571  -0.2222222), wk =   0.0063492
        k(   83) = (  -0.2000000  -0.1428571   0.2222222), wk =   0.0063492
        k(   84) = (  -0.2000000   0.1428571  -0.3333333), wk =   0.0063492
        k(   85) = (   0.2000000  -0.1428571  -0.3333333), wk =   0.0063492
        k(   86) = (  -0.2000000  -0.1428571   0.3333333), wk =   0.0063492
        k(   87) = (  -0.2000000   0.1428571  -0.4444444), wk =   0.0063492
        k(   88) = (   0.2000000  -0.1428571  -0.4444444), wk =   0.0063492
        k(   89) = (  -0.2000000  -0.1428571   0.4444444), wk =   0.0063492
        k(   90) = (  -0.2000000   0.2857143   0.0000000), wk =   0.0063492
        k(   91) = (  -0.2000000   0.2857143  -0.1111111), wk =   0.0063492
        k(   92) = (   0.2000000  -0.2857143  -0.1111111), wk =   0.0063492
        k(   93) = (  -0.2000000  -0.2857143   0.1111111), wk =   0.0063492
        k(   94) = (  -0.2000000   0.2857143  -0.2222222), wk =   0.0063492
        k(   95) = (   0.2000000  -0.2857143  -0.2222222), wk =   0.0063492
        k(   96) = (  -0.2000000  -0.2857143   0.2222222), wk =   0.0063492
        k(   97) = (  -0.2000000   0.2857143  -0.3333333), wk =   0.0063492
        k(   98) = (   0.2000000  -0.2857143  -0.3333333), wk =   0.0063492
        k(   99) = (  -0.2000000  -0.2857143   0.3333333), wk =   0.0063492
        k(  100) = (  -0.2000000   0.2857143  -0.4444444), wk =   0.0063492
        k(  101) = (   0.2000000  -0.2857143  -0.4444444), wk =   0.0063492
        k(  102) = (  -0.2000000  -0.2857143   0.4444444), wk =   0.0063492
        k(  103) = (  -0.2000000   0.4285714   0.0000000), wk =   0.0063492
        k(  104) = (  -0.2000000   0.4285714  -0.1111111), wk =   0.0063492
        k(  105) = (   0.2000000  -0.4285714  -0.1111111), wk =   0.0063492
        k(  106) = (  -0.2000000  -0.4285714   0.1111111), wk =   0.0063492
        k(  107) = (  -0.2000000   0.4285714  -0.2222222), wk =   0.0063492
        k(  108) = (   0.2000000  -0.4285714  -0.2222222), wk =   0.0063492
        k(  109) = (  -0.2000000  -0.4285714   0.2222222), wk =   0.0063492
        k(  110) = (  -0.2000000   0.4285714  -0.3333333), wk =   0.0063492
        k(  111) = (   0.2000000  -0.4285714  -0.3333333), wk =   0.0063492
        k(  112) = (  -0.2000000  -0.4285714   0.3333333), wk =   0.0063492
        k(  113) = (  -0.2000000   0.4285714  -0.4444444), wk =   0.0063492
        k(  114) = (   0.2000000  -0.4285714  -0.4444444), wk =   0.0063492
        k(  115) = (  -0.2000000  -0.4285714   0.4444444), wk =   0.0063492
        k(  116) = (   0.4000000   0.0000000  -0.1111111), wk =   0.0063492
        k(  117) = (   0.4000000   0.0000000  -0.2222222), wk =   0.0063492
        k(  118) = (   0.4000000   0.0000000  -0.3333333), wk =   0.0063492
        k(  119) = (   0.4000000   0.0000000  -0.4444444), wk =   0.0063492
        k(  120) = (  -0.4000000   0.1428571   0.0000000), wk =   0.0063492
        k(  121) = (  -0.4000000   0.1428571  -0.1111111), wk =   0.0063492
        k(  122) = (   0.4000000  -0.1428571  -0.1111111), wk =   0.0063492
        k(  123) = (  -0.4000000  -0.1428571   0.1111111), wk =   0.0063492
        k(  124) = (  -0.4000000   0.1428571  -0.2222222), wk =   0.0063492
        k(  125) = (   0.4000000  -0.1428571  -0.2222222), wk =   0.0063492
        k(  126) = (  -0.4000000  -0.1428571   0.2222222), wk =   0.0063492
        k(  127) = (  -0.4000000   0.1428571  -0.3333333), wk =   0.0063492
        k(  128) = (   0.4000000  -0.1428571  -0.3333333), wk =   0.0063492
        k(  129) = (  -0.4000000  -0.1428571   0.3333333), wk =   0.0063492
        k(  130) = (  -0.4000000   0.1428571  -0.4444444), wk =   0.0063492
        k(  131) = (   0.4000000  -0.1428571  -0.4444444), wk =   0.0063492
        k(  132) = (  -0.4000000  -0.1428571   0.4444444), wk =   0.0063492
        k(  133) = (  -0.4000000   0.2857143   0.0000000), wk =   0.0063492
        k(  134) = (  -0.4000000   0.2857143  -0.1111111), wk =   0.0063492
        k(  135) = (   0.4000000  -0.2857143  -0.1111111), wk =   0.0063492
        k(  136) = (  -0.4000000  -0.2857143   0.1111111), wk =   0.0063492
        k(  137) = (  -0.4000000   0.2857143  -0.2222222), wk =   0.0063492
        k(  138) = (   0.4000000  -0.2857143  -0.2222222), wk =   0.0063492
        k(  139) = (  -0.4000000  -0.2857143   0.2222222), wk =   0.0063492
        k(  140) = (  -0.4000000   0.2857143  -0.3333333), wk =   0.0063492
        k(  141) = (   0.4000000  -0.2857143  -0.3333333), wk =   0.0063492
        k(  142) = (  -0.4000000  -0.2857143   0.3333333), wk =   0.0063492
        k(  143) = (  -0.4000000   0.2857143  -0.4444444), wk =   0.0063492
        k(  144) = (   0.4000000  -0.2857143  -0.4444444), wk =   0.0063492
        k(  145) = (  -0.4000000  -0.2857143   0.4444444), wk =   0.0063492
        k(  146) = (  -0.4000000   0.4285714   0.0000000), wk =   0.0063492
        k(  147) = (  -0.4000000   0.4285714  -0.1111111), wk =   0.0063492
        k(  148) = (   0.4000000  -0.4285714  -0.1111111), wk =   0.0063492
        k(  149) = (  -0.4000000  -0.4285714   0.1111111), wk =   0.0063492
        k(  150) = (  -0.4000000   0.4285714  -0.2222222), wk =   0.0063492
        k(  151) = (   0.4000000  -0.4285714  -0.2222222), wk =   0.0063492
        k(  152) = (  -0.4000000  -0.4285714   0.2222222), wk =   0.0063492
        k(  153) = (  -0.4000000   0.4285714  -0.3333333), wk =   0.0063492
        k(  154) = (   0.4000000  -0.4285714  -0.3333333), wk =   0.0063492
        k(  155) = (  -0.4000000  -0.4285714   0.3333333), wk =   0.0063492
        k(  156) = (  -0.4000000   0.4285714  -0.4444444), wk =   0.0063492
        k(  157) = (   0.4000000  -0.4285714  -0.4444444), wk =   0.0063492
        k(  158) = (  -0.4000000  -0.4285714   0.4444444), wk =   0.0063492

     Dense  grid:  1230153 G-vectors     FFT dimensions: ( 200, 125, 100)

     Smooth grid:   277403 G-vectors     FFT dimensions: ( 120,  75,  60)

     Dynamical RAM for                 wfc:       5.02 MB

     Dynamical RAM for     wfc (w. buffer):    1592.51 MB

     Dynamical RAM for           str. fact:       6.26 MB

     Dynamical RAM for           local pot:       0.00 MB

     Dynamical RAM for          nlocal pot:      12.34 MB

     Dynamical RAM for                qrad:      10.54 MB

     Dynamical RAM for          rho,v,vnew:      19.69 MB

     Dynamical RAM for               rhoin:       6.56 MB

     Dynamical RAM for            rho*nmix:      50.06 MB

     Dynamical RAM for           G-vectors:       6.04 MB

     Dynamical RAM for          h,s,v(r/c):       2.38 MB

     Dynamical RAM for          <psi|beta>:       0.49 MB

     Dynamical RAM for                 psi:      10.05 MB

     Dynamical RAM for                hpsi:      10.05 MB

     Dynamical RAM for                spsi:      10.05 MB

     Dynamical RAM for      wfcinit/wfcrot:      12.51 MB

     Dynamical RAM for           addusdens:     317.54 MB

     Dynamical RAM for          addusforce:     364.59 MB

     Dynamical RAM for         addusstress:     316.76 MB

     Estimated static dynamical RAM per process >       1.68 GB

     Estimated max dynamical RAM per process >       2.04 GB

     Estimated total dynamical RAM >      24.45 GB

     Check: negative core charge=   -0.000003
     Generating pointlists ...
     new r_m :   0.0771 (alat units)  1.4401 (a.u.) for type    1
     new r_m :   0.0963 (alat units)  1.7981 (a.u.) for type    2
     new r_m :   0.0614 (alat units)  1.1472 (a.u.) for type    3
     new r_m :   0.0614 (alat units)  1.1472 (a.u.) for type    4

     Initial potential from superposition of free atoms

     starting charge  188.99132, renormalised to  189.00000
     Starting wfcs are  137 randomized atomic wfcs
     Checking if some PAW data can be deallocated... 
       PAW data deallocated on   10 nodes for type:  1
       PAW data deallocated on    4 nodes for type:  3

     total cpu time spent up to now is      329.2 secs

     Self-consistent Calculation

     iteration #  1     ecut=   100.00 Ry     beta= 0.40
     Davidson diagonalization with overlap
     ethr =  1.00E-02,  avg # of iterations =  3.3

     negative rho (up, down):  0.000E+00 5.146E-05

     total cpu time spent up to now is     1420.4 secs

     total energy              =   -2124.10108724 Ry
     estimated scf accuracy    <       6.60516614 Ry

     total magnetization       =    19.00 Bohr mag/cell
     absolute magnetization    =    19.00 Bohr mag/cell

     iteration #  2     ecut=   100.00 Ry     beta= 0.40
     Davidson diagonalization with overlap
     ethr =  3.49E-03,  avg # of iterations =  2.0

     negative rho (up, down):  0.000E+00 3.369E-05

     total cpu time spent up to now is     2378.9 secs

     total energy              =   -2124.05063532 Ry
     estimated scf accuracy    <       8.50480629 Ry

     total magnetization       =    13.84 Bohr mag/cell
     absolute magnetization    =    13.86 Bohr mag/cell

     iteration #  3     ecut=   100.00 Ry     beta= 0.40
     Davidson diagonalization with overlap
     ethr =  3.49E-03,  avg # of iterations =  2.0

     negative rho (up, down):  0.000E+00 1.712E-04

     total cpu time spent up to now is     3212.4 secs

     total energy              =   -2126.04026367 Ry
     estimated scf accuracy    <       1.57558652 Ry

     total magnetization       =    19.00 Bohr mag/cell
     absolute magnetization    =    19.00 Bohr mag/cell

     iteration #  4     ecut=   100.00 Ry     beta= 0.40
     Davidson diagonalization with overlap
     ethr =  8.34E-04,  avg # of iterations =  2.2

     negative rho (up, down):  0.000E+00 2.411E-04

     total cpu time spent up to now is     4079.3 secs

     total energy              =   -2126.07131634 Ry
     estimated scf accuracy    <       0.82071729 Ry

     total magnetization       =    19.00 Bohr mag/cell
     absolute magnetization    =    19.00 Bohr mag/cell

     iteration #  5     ecut=   100.00 Ry     beta= 0.40
     Davidson diagonalization with overlap
     ethr =  4.34E-04,  avg # of iterations =  2.9

     negative rho (up, down):  0.000E+00 7.561E-04

     total cpu time spent up to now is     4900.3 secs

     total energy              =   -2126.01859840 Ry
     estimated scf accuracy    <       0.41057395 Ry

     total magnetization       =    19.00 Bohr mag/cell
     absolute magnetization    =    19.00 Bohr mag/cell

     iteration #  6     ecut=   100.00 Ry     beta= 0.40
     Davidson diagonalization with overlap
     c_bands:  1 eigenvalues not converged
     c_bands:  1 eigenvalues not converged
     ethr =  2.17E-04,  avg # of iterations =  9.4

     negative rho (up, down):  0.000E+00 8.843E-04

     total cpu time spent up to now is     6063.0 secs

     total energy              =   -2126.08703538 Ry
     estimated scf accuracy    <       0.25859771 Ry

     total magnetization       =    19.00 Bohr mag/cell
     absolute magnetization    =    19.01 Bohr mag/cell

     iteration #  7     ecut=   100.00 Ry     beta= 0.40
     Davidson diagonalization with overlap
     ethr =  1.37E-04,  avg # of iterations =  2.4

     negative rho (up, down):  0.000E+00 9.949E-04

     total cpu time spent up to now is     6826.0 secs

     total energy              =   -2126.10394897 Ry
     estimated scf accuracy    <       0.07094022 Ry

     total magnetization       =    19.00 Bohr mag/cell
     absolute magnetization    =    19.02 Bohr mag/cell

     iteration #  8     ecut=   100.00 Ry     beta= 0.40
     Davidson diagonalization with overlap
     c_bands:  2 eigenvalues not converged
     c_bands:  2 eigenvalues not converged
     c_bands:  2 eigenvalues not converged
     c_bands:  1 eigenvalues not converged
     c_bands:  1 eigenvalues not converged
     c_bands:  1 eigenvalues not converged
     c_bands:  1 eigenvalues not converged
     c_bands:  1 eigenvalues not converged
     c_bands:  1 eigenvalues not converged
     c_bands:  1 eigenvalues not converged
     c_bands:  1 eigenvalues not converged
     c_bands:  1 eigenvalues not converged
     c_bands:  1 eigenvalues not converged
     ethr =  3.75E-05,  avg # of iterations = 10.2

     negative rho (up, down):  0.000E+00 1.007E-03

     total cpu time spent up to now is     7998.6 secs

     total energy              =   -2126.11079352 Ry
     estimated scf accuracy    <       0.02066084 Ry

     total magnetization       =    19.00 Bohr mag/cell
     absolute magnetization    =    19.03 Bohr mag/cell

     iteration #  9     ecut=   100.00 Ry     beta= 0.40
     Davidson diagonalization with overlap
     c_bands:  1 eigenvalues not converged
     c_bands:  1 eigenvalues not converged
     c_bands:  1 eigenvalues not converged
     c_bands:  1 eigenvalues not converged
     c_bands:  1 eigenvalues not converged
     c_bands:  1 eigenvalues not converged
     c_bands:  1 eigenvalues not converged
     c_bands:  1 eigenvalues not converged
     c_bands:  1 eigenvalues not converged
     c_bands:  1 eigenvalues not converged
     c_bands:  1 eigenvalues not converged
     c_bands:  1 eigenvalues not converged
     ethr =  1.09E-05,  avg # of iterations =  8.1

     negative rho (up, down):  0.000E+00 9.979E-04

     total cpu time spent up to now is     9080.0 secs

     total energy              =   -2126.11315268 Ry
     estimated scf accuracy    <       0.00109715 Ry

     total magnetization       =    19.00 Bohr mag/cell
     absolute magnetization    =    19.03 Bohr mag/cell

     iteration # 10     ecut=   100.00 Ry     beta= 0.40
     Davidson diagonalization with overlap
     c_bands:  2 eigenvalues not converged
     c_bands:  1 eigenvalues not converged
     c_bands:  1 eigenvalues not converged
     c_bands:  1 eigenvalues not converged
     c_bands:  1 eigenvalues not converged
     c_bands:  1 eigenvalues not converged
     c_bands:  1 eigenvalues not converged
     c_bands:  1 eigenvalues not converged
     c_bands:  1 eigenvalues not converged
     c_bands:  1 eigenvalues not converged
     c_bands:  1 eigenvalues not converged
     c_bands:  1 eigenvalues not converged
     c_bands:  1 eigenvalues not converged
     c_bands:  1 eigenvalues not converged
     c_bands:  1 eigenvalues not converged
     c_bands:  1 eigenvalues not converged
     c_bands:  1 eigenvalues not converged
     c_bands:  1 eigenvalues not converged
     c_bands:  1 eigenvalues not converged
     c_bands:  2 eigenvalues not converged
     ethr =  5.81E-07,  avg # of iterations =  8.9

     negative rho (up, down):  0.000E+00 9.743E-04

     total cpu time spent up to now is    11009.9 secs

     total energy              =   -2126.11414762 Ry
     estimated scf accuracy    <       0.00687019 Ry

     total magnetization       =    19.00 Bohr mag/cell
     absolute magnetization    =    19.04 Bohr mag/cell

     iteration # 11     ecut=   100.00 Ry     beta= 0.40
     Davidson diagonalization with overlap
     c_bands:  1 eigenvalues not converged
     c_bands:  1 eigenvalues not converged
     ethr =  5.81E-07,  avg # of iterations =  1.4

     negative rho (up, down):  0.000E+00 9.597E-04

     total cpu time spent up to now is    11699.9 secs

     total energy              =   -2126.11425525 Ry
     estimated scf accuracy    <       0.00058005 Ry

     total magnetization       =    19.00 Bohr mag/cell
     absolute magnetization    =    19.04 Bohr mag/cell

     iteration # 12     ecut=   100.00 Ry     beta= 0.40
     Davidson diagonalization with overlap
     ethr =  3.07E-07,  avg # of iterations =  1.0

     negative rho (up, down):  0.000E+00 9.592E-04

     total cpu time spent up to now is    12375.1 secs

     total energy              =   -2126.11427204 Ry
     estimated scf accuracy    <       0.00010301 Ry

     total magnetization       =    19.00 Bohr mag/cell
     absolute magnetization    =    19.04 Bohr mag/cell

     iteration # 13     ecut=   100.00 Ry     beta= 0.40
     Davidson diagonalization with overlap
     ethr =  5.45E-08,  avg # of iterations =  1.0

     negative rho (up, down):  0.000E+00 9.583E-04

     total cpu time spent up to now is    13048.3 secs

     total energy              =   -2126.11428060 Ry
     estimated scf accuracy    <       0.00003419 Ry

     total magnetization       =    19.00 Bohr mag/cell
     absolute magnetization    =    19.04 Bohr mag/cell

     iteration # 14     ecut=   100.00 Ry     beta= 0.40
     Davidson diagonalization with overlap
     ethr =  1.81E-08,  avg # of iterations =  1.5

     negative rho (up, down):  0.000E+00 9.594E-04

     total cpu time spent up to now is    13772.3 secs

     total energy              =   -2126.11428506 Ry
     estimated scf accuracy    <       0.00001026 Ry

     total magnetization       =    19.00 Bohr mag/cell
     absolute magnetization    =    19.04 Bohr mag/cell

     iteration # 15     ecut=   100.00 Ry     beta= 0.40
     Davidson diagonalization with overlap
     ethr =  5.43E-09,  avg # of iterations =  3.7

     negative rho (up, down):  0.000E+00 9.601E-04

     total cpu time spent up to now is    14669.5 secs

     total energy              =   -2126.11428685 Ry
     estimated scf accuracy    <       0.00000035 Ry

     total magnetization       =    19.00 Bohr mag/cell
     absolute magnetization    =    19.04 Bohr mag/cell

     iteration # 16     ecut=   100.00 Ry     beta= 0.40
     Davidson diagonalization with overlap
     ethr =  1.86E-10,  avg # of iterations =  7.7

     negative rho (up, down):  0.000E+00 9.604E-04

     total cpu time spent up to now is    16902.3 secs

     total energy              =   -2126.11428773 Ry
     estimated scf accuracy    <       0.00000008 Ry

     total magnetization       =    19.00 Bohr mag/cell
     absolute magnetization    =    19.04 Bohr mag/cell

     iteration # 17     ecut=   100.00 Ry     beta= 0.40
     Davidson diagonalization with overlap
     ethr =  4.46E-11,  avg # of iterations =  2.0

     negative rho (up, down):  0.000E+00 9.605E-04

     total cpu time spent up to now is    17725.5 secs

     total energy              =   -2126.11428777 Ry
     estimated scf accuracy    <       0.00000026 Ry

     total magnetization       =    19.00 Bohr mag/cell
     absolute magnetization    =    19.04 Bohr mag/cell

     iteration # 18     ecut=   100.00 Ry     beta= 0.40
     Davidson diagonalization with overlap
     ethr =  4.46E-11,  avg # of iterations =  1.0

     negative rho (up, down):  0.000E+00 9.605E-04

     total cpu time spent up to now is    18398.8 secs

     total energy              =   -2126.11428779 Ry
     estimated scf accuracy    <          8.9E-09 Ry

     total magnetization       =    19.00 Bohr mag/cell
     absolute magnetization    =    19.04 Bohr mag/cell

     iteration # 19     ecut=   100.00 Ry     beta= 0.40
     Davidson diagonalization with overlap
     ethr =  4.69E-12,  avg # of iterations =  4.3

     negative rho (up, down):  0.000E+00 9.605E-04

     total cpu time spent up to now is    19361.9 secs

     total energy              =   -2126.11428779 Ry
     estimated scf accuracy    <          1.5E-09 Ry

     total magnetization       =    19.00 Bohr mag/cell
     absolute magnetization    =    19.04 Bohr mag/cell

     iteration # 20     ecut=   100.00 Ry     beta= 0.40
     Davidson diagonalization with overlap
     ethr =  7.70E-13,  avg # of iterations =  4.3

     negative rho (up, down):  0.000E+00 9.605E-04

     total cpu time spent up to now is    20491.3 secs

     total energy              =   -2126.11428780 Ry
     estimated scf accuracy    <          4.3E-10 Ry

     total magnetization       =    19.00 Bohr mag/cell
     absolute magnetization    =    19.04 Bohr mag/cell

     iteration # 21     ecut=   100.00 Ry     beta= 0.40
     Davidson diagonalization with overlap
     ethr =  2.25E-13,  avg # of iterations =  2.6

     negative rho (up, down):  0.000E+00 9.605E-04

     total cpu time spent up to now is    21420.5 secs

     total energy              =   -2126.11428780 Ry
     estimated scf accuracy    <          2.7E-10 Ry

     total magnetization       =    19.00 Bohr mag/cell
     absolute magnetization    =    19.04 Bohr mag/cell

     iteration # 22     ecut=   100.00 Ry     beta= 0.40
     Davidson diagonalization with overlap
     ethr =  1.44E-13,  avg # of iterations =  2.0

     negative rho (up, down):  0.000E+00 9.605E-04

     Magnetic moment per site:
     atom:    1    charge:    7.9552    magn:    0.0007    constr:    0.0000
     atom:    2    charge:   12.6823    magn:    3.5758    constr:    0.0000
     atom:    3    charge:   12.6857    magn:    3.5632    constr:    0.0000
     atom:    4    charge:   12.6823    magn:    3.5758    constr:    0.0000
     atom:    5    charge:   12.6857    magn:    3.5632    constr:    0.0000
     atom:    6    charge:    0.7426    magn:    0.0105    constr:    0.0000
     atom:    7    charge:    0.7412    magn:    0.0079    constr:    0.0000
     atom:    8    charge:    0.7426    magn:    0.0105    constr:    0.0000
     atom:    9    charge:    0.7412    magn:    0.0079    constr:    0.0000
     atom:   10    charge:    4.0410    magn:    0.1308    constr:    0.0000
     atom:   11    charge:    4.0422    magn:    0.0860    constr:    0.0000
     atom:   12    charge:    4.0411    magn:    0.1308    constr:    0.0000
     atom:   13    charge:    4.0422    magn:    0.0860    constr:    0.0000
     atom:   14    charge:    4.0825    magn:    0.0887    constr:    0.0000
     atom:   15    charge:    4.0914    magn:    0.1260    constr:    0.0000
     atom:   16    charge:    4.0825    magn:    0.0887    constr:    0.0000
     atom:   17    charge:    4.0914    magn:    0.1260    constr:    0.0000
     atom:   18    charge:    4.0169    magn:    0.1504    constr:    0.0000
     atom:   19    charge:    4.0198    magn:    0.1299    constr:    0.0000
     atom:   20    charge:    4.0164    magn:    0.1416    constr:    0.0000
     atom:   21    charge:    4.0197    magn:    0.1195    constr:    0.0000
     atom:   22    charge:    4.0170    magn:    0.1504    constr:    0.0000
     atom:   23    charge:    4.0197    magn:    0.1299    constr:    0.0000
     atom:   24    charge:    4.0164    magn:    0.1416    constr:    0.0000
     atom:   25    charge:    4.0197    magn:    0.1195    constr:    0.0000

     total cpu time spent up to now is    22315.4 secs

     End of self-consistent calculation

 ------ SPIN UP ------------


          k = 0.0000 0.0000 0.0000 ( 34615 PWs)   bands (ev):

   -84.4224 -84.4218 -84.4114 -84.4107 -50.6098 -50.6092 -50.5564 -50.5559
   -50.3845 -50.3838 -50.3413 -50.3403 -50.3185 -50.3178 -50.2814 -50.2807
   -44.0810 -16.2652 -16.0842 -16.0693 -16.0587 -15.8177 -15.6920 -15.5422
   -13.7288 -13.4693 -13.4521 -13.3971 -13.2153 -13.1981 -13.0151 -12.9979
   -12.9880 -12.9396 -12.7734 -12.7376  -3.7620  -3.3292  -3.0334  -2.6746
    -2.0448  -1.7631  -1.3179  -1.2810  -1.1878  -1.0416  -0.9901  -0.8184
    -0.6862  -0.6361  -0.3675  -0.0053   0.1513   0.1903   0.6865   0.7520
     0.8579   0.9133   1.0970   1.1387   1.1776   1.2648   1.3315   1.4129
     1.5144   1.8710   1.8953   1.9606   2.0401   2.0437   2.1318   2.2325
     2.2832   2.3987   2.6150   2.7812   2.8324   2.8477   2.8888   2.9920
     3.0544   3.2515   3.3246   3.3493   3.4592   3.5475   3.7411   3.7668
     3.8304   3.9137   3.9678   4.0257   4.2463   4.2848   4.2936   4.5141
     4.5148   4.7268   4.7466   5.0489   5.1745   5.3575   5.4479   5.5218
    10.0973  12.1395  12.5169  13.0383  13.0734  13.4885  14.1950  14.2481
    14.4327  14.4647

     occupation numbers 
     1.0000   1.0000   1.0000   1.0000   1.0000   1.0000   1.0000   1.0000
     1.0000   1.0000   1.0000   1.0000   1.0000   1.0000   1.0000   1.0000
     1.0000   1.0000   1.0000   1.0000   1.0000   1.0000   1.0000   1.0000
     1.0000   1.0000   1.0000   1.0000   1.0000   1.0000   1.0000   1.0000
     1.0000   1.0000   1.0000   1.0000   1.0000   1.0000   1.0000   1.0000
     1.0000   1.0000   1.0000   1.0000   1.0000   1.0000   1.0000   1.0000
     1.0000   1.0000   1.0000   1.0000   1.0000   1.0000   1.0000   1.0000
     1.0000   1.0000   1.0000   1.0000   1.0000   1.0000   1.0000   1.0000
     1.0000   1.0000   1.0000   1.0000   1.0000   1.0000   1.0000   1.0000
     1.0000   1.0000   1.0000   1.0000   1.0000   1.0000   1.0000   1.0000
     1.0000   1.0000   1.0000   1.0000   1.0000   1.0000   1.0000   1.0000
     1.0000   1.0000   1.0000   1.0000   1.0000   1.0000   1.0000   1.0000
     1.0000   1.0000   1.0000   1.0000   1.0000   1.0000   1.0000   1.0000
     0.0000   0.0000   0.0000   0.0000   0.0000   0.0000   0.0000   0.0000
     0.0000   0.0000

          k = 0.0000 0.0000 0.2220 ( 34593 PWs)   bands (ev):

   -84.4224 -84.4218 -84.4114 -84.4107 -50.6098 -50.6092 -50.5564 -50.5559
   -50.3845 -50.3838 -50.3413 -50.3403 -50.3185 -50.3178 -50.2814 -50.2807
   -44.0810 -16.2678 -16.1111 -16.0838 -15.9988 -15.8081 -15.6857 -15.5507
   -13.7255 -13.4682 -13.4615 -13.3936 -13.2303 -13.2036 -13.0306 -13.0050
   -12.9839 -12.9357 -12.7778 -12.7442  -3.7363  -3.3205  -3.0356  -2.6905
    -1.9936  -1.7406  -1.3271  -1.2668  -1.1802  -1.0757  -0.9090  -0.8370
    -0.6432  -0.6276  -0.4131   0.0166   0.1255   0.2076   0.6810   0.7637
     0.8687   0.9384   1.0805   1.1453   1.1756   1.2360   1.3205   1.4701
     1.4976   1.8508   1.8660   1.9406   1.9931   2.0281   2.0971   2.1362
     2.3918   2.4408   2.5834   2.7733   2.7860   2.8106   2.8585   3.0065
     3.0853   3.1954   3.3130   3.4413   3.5114   3.5801   3.6715   3.7576
     3.7781   3.9255   3.9568   4.0034   4.2151   4.2932   4.3767   4.5138
     4.5444   4.7309   4.7808   5.0339   5.1776   5.3362   5.4221   5.4990
    10.2501  12.2055  12.5918  12.9614  13.1991  13.4662  14.0692  14.2677
    14.2814  14.4565

     occupation numbers 
     1.0000   1.0000   1.0000   1.0000   1.0000   1.0000   1.0000   1.0000
     1.0000   1.0000   1.0000   1.0000   1.0000   1.0000   1.0000   1.0000
     1.0000   1.0000   1.0000   1.0000   1.0000   1.0000   1.0000   1.0000
     1.0000   1.0000   1.0000   1.0000   1.0000   1.0000   1.0000   1.0000
     1.0000   1.0000   1.0000   1.0000   1.0000   1.0000   1.0000   1.0000
     1.0000   1.0000   1.0000   1.0000   1.0000   1.0000   1.0000   1.0000
     1.0000   1.0000   1.0000   1.0000   1.0000   1.0000   1.0000   1.0000
     1.0000   1.0000   1.0000   1.0000   1.0000   1.0000   1.0000   1.0000
     1.0000   1.0000   1.0000   1.0000   1.0000   1.0000   1.0000   1.0000
     1.0000   1.0000   1.0000   1.0000   1.0000   1.0000   1.0000   1.0000
     1.0000   1.0000   1.0000   1.0000   1.0000   1.0000   1.0000   1.0000
     1.0000   1.0000   1.0000   1.0000   1.0000   1.0000   1.0000   1.0000
     1.0000   1.0000   1.0000   1.0000   1.0000   1.0000   1.0000   1.0000
     0.0000   0.0000   0.0000   0.0000   0.0000   0.0000   0.0000   0.0000
     0.0000   0.0000

          k = 0.0000 0.0000 0.4441 ( 34664 PWs)   bands (ev):

   -84.4224 -84.4218 -84.4114 -84.4107 -50.6098 -50.6092 -50.5564 -50.5559
   -50.3845 -50.3838 -50.3413 -50.3403 -50.3185 -50.3178 -50.2814 -50.2807
   -44.0810 -16.2821 -16.1218 -16.0830 -15.9335 -15.7823 -15.6691 -15.5748
   -13.7143 -13.4945 -13.4602 -13.3851 -13.2684 -13.2133 -13.0710 -13.0336
   -12.9635 -12.9235 -12.7908 -12.7626  -3.6633  -3.3049  -3.0368  -2.7426
    -1.8572  -1.6826  -1.3425  -1.2544  -1.1529  -1.0857  -0.8606  -0.7482
    -0.6005  -0.5611  -0.5295   0.0031   0.1245   0.2687   0.6713   0.7997
     0.8807   0.9940   1.0801   1.1393   1.1699   1.2303   1.2828   1.4745
     1.5529   1.7806   1.8080   1.8923   1.9357   1.9820   2.0170   2.0246
     2.3315   2.4015   2.6597   2.6824   2.7126   2.7416   2.9109   3.0308
     3.0829   3.1585   3.3942   3.4583   3.4691   3.5982   3.6447   3.6776
     3.7914   3.8732   3.9563   4.0867   4.2331   4.3076   4.5024   4.5170
     4.6261   4.6937   4.8763   5.0108   5.1763   5.2848   5.3459   5.4304
    10.6621  12.3769  12.7861  12.9528  13.3436  13.4523  13.7656  14.0636
    14.2132  14.3605

     occupation numbers 
     1.0000   1.0000   1.0000   1.0000   1.0000   1.0000   1.0000   1.0000
     1.0000   1.0000   1.0000   1.0000   1.0000   1.0000   1.0000   1.0000
     1.0000   1.0000   1.0000   1.0000   1.0000   1.0000   1.0000   1.0000
     1.0000   1.0000   1.0000   1.0000   1.0000   1.0000   1.0000   1.0000
     1.0000   1.0000   1.0000   1.0000   1.0000   1.0000   1.0000   1.0000
     1.0000   1.0000   1.0000   1.0000   1.0000   1.0000   1.0000   1.0000
     1.0000   1.0000   1.0000   1.0000   1.0000   1.0000   1.0000   1.0000
     1.0000   1.0000   1.0000   1.0000   1.0000   1.0000   1.0000   1.0000
     1.0000   1.0000   1.0000   1.0000   1.0000   1.0000   1.0000   1.0000
     1.0000   1.0000   1.0000   1.0000   1.0000   1.0000   1.0000   1.0000
     1.0000   1.0000   1.0000   1.0000   1.0000   1.0000   1.0000   1.0000
     1.0000   1.0000   1.0000   1.0000   1.0000   1.0000   1.0000   1.0000
     1.0000   1.0000   1.0000   1.0000   1.0000   1.0000   1.0000   1.0000
     0.0000   0.0000   0.0000   0.0000   0.0000   0.0000   0.0000   0.0000
     0.0000   0.0000

          k = 0.0000 0.0000 0.6661 ( 34722 PWs)   bands (ev):

   -84.4224 -84.4218 -84.4114 -84.4107 -50.6098 -50.6092 -50.5564 -50.5559
   -50.3845 -50.3838 -50.3413 -50.3403 -50.3185 -50.3178 -50.2814 -50.2807
   -44.0810 -16.3040 -16.1031 -16.0821 -15.8826 -15.7463 -15.6501 -15.6092
   -13.6922 -13.5420 -13.4525 -13.3778 -13.3076 -13.2194 -13.1183 -13.0709
   -12.9333 -12.9054 -12.8110 -12.7884  -3.5565  -3.3068  -3.0262  -2.8267
    -1.7006  -1.6174  -1.3441  -1.2648  -1.0958  -1.0562  -0.8565  -0.7137
    -0.5849  -0.5148  -0.4726  -0.1347   0.2559   0.4003   0.6611   0.8556
     0.9133   0.9792   1.0990   1.1295   1.1649   1.2133   1.2615   1.4919
     1.5606   1.6644   1.7094   1.7965   1.8934   1.9590   1.9740   2.0266
     2.0724   2.2850   2.5315   2.6270   2.6498   2.9097   2.9524   3.0625
     3.0900   3.2063   3.2683   3.3410   3.5002   3.5344   3.6037   3.6709
     3.8110   3.8436   4.0599   4.2248   4.3254   4.3999   4.5095   4.5872
     4.6334   4.7493   4.9573   5.0048   5.1422   5.2100   5.2615   5.3203
    11.2343  12.5920  12.8872  13.0916  13.3241  13.4563  13.6744  13.8794
    13.9953  14.0402

     occupation numbers 
     1.0000   1.0000   1.0000   1.0000   1.0000   1.0000   1.0000   1.0000
     1.0000   1.0000   1.0000   1.0000   1.0000   1.0000   1.0000   1.0000
     1.0000   1.0000   1.0000   1.0000   1.0000   1.0000   1.0000   1.0000
     1.0000   1.0000   1.0000   1.0000   1.0000   1.0000   1.0000   1.0000
     1.0000   1.0000   1.0000   1.0000   1.0000   1.0000   1.0000   1.0000
     1.0000   1.0000   1.0000   1.0000   1.0000   1.0000   1.0000   1.0000
     1.0000   1.0000   1.0000   1.0000   1.0000   1.0000   1.0000   1.0000
     1.0000   1.0000   1.0000   1.0000   1.0000   1.0000   1.0000   1.0000
     1.0000   1.0000   1.0000   1.0000   1.0000   1.0000   1.0000   1.0000
     1.0000   1.0000   1.0000   1.0000   1.0000   1.0000   1.0000   1.0000
     1.0000   1.0000   1.0000   1.0000   1.0000   1.0000   1.0000   1.0000
     1.0000   1.0000   1.0000   1.0000   1.0000   1.0000   1.0000   1.0000
     1.0000   1.0000   1.0000   1.0000   1.0000   1.0000   1.0000   1.0000
     0.0000   0.0000   0.0000   0.0000   0.0000   0.0000   0.0000   0.0000
     0.0000   0.0000

          k = 0.0000 0.0000 0.8882 ( 34692 PWs)   bands (ev):

   -84.4224 -84.4218 -84.4114 -84.4107 -50.6098 -50.6092 -50.5564 -50.5559
   -50.3844 -50.3838 -50.3413 -50.3403 -50.3185 -50.3178 -50.2814 -50.2807
   -44.0810 -16.3186 -16.0835 -16.0810 -15.8570 -15.7051 -15.6589 -15.6273
   -13.6596 -13.5929 -13.4474 -13.3791 -13.3238 -13.2234 -13.1465 -13.1004
   -12.9018 -12.8905 -12.8338 -12.8106  -3.4409  -3.3494  -2.9953  -2.9143
    -1.6046  -1.5821  -1.3357  -1.2746  -1.0016  -0.9845  -0.8922  -0.8631
    -0.4931  -0.4249  -0.3958  -0.2879   0.4566   0.6120   0.6431   0.8537
     0.8989   0.9667   1.0296   1.0669   1.1136   1.1824   1.3055   1.4714
     1.5462   1.6361   1.6511   1.7018   1.8362   1.8931   1.9489   1.9837
     2.1201   2.2831   2.3755   2.4728   2.6736   2.8727   3.0495   3.1279
     3.1645   3.1776   3.2485   3.2863   3.3657   3.4705   3.6228   3.6694
     3.8118   3.8483   4.1943   4.2527   4.3727   4.5111   4.5506   4.6228
     4.6615   4.8835   4.9567   4.9995   5.0461   5.1471   5.1987   5.2476
    11.8692  12.4677  12.8711  13.0906  13.4852  13.4926  13.6793  13.7225
    13.9418  13.9662

     occupation numbers 
     1.0000   1.0000   1.0000   1.0000   1.0000   1.0000   1.0000   1.0000
     1.0000   1.0000   1.0000   1.0000   1.0000   1.0000   1.0000   1.0000
     1.0000   1.0000   1.0000   1.0000   1.0000   1.0000   1.0000   1.0000
     1.0000   1.0000   1.0000   1.0000   1.0000   1.0000   1.0000   1.0000
     1.0000   1.0000   1.0000   1.0000   1.0000   1.0000   1.0000   1.0000
     1.0000   1.0000   1.0000   1.0000   1.0000   1.0000   1.0000   1.0000
     1.0000   1.0000   1.0000   1.0000   1.0000   1.0000   1.0000   1.0000
     1.0000   1.0000   1.0000   1.0000   1.0000   1.0000   1.0000   1.0000
     1.0000   1.0000   1.0000   1.0000   1.0000   1.0000   1.0000   1.0000
     1.0000   1.0000   1.0000   1.0000   1.0000   1.0000   1.0000   1.0000
     1.0000   1.0000   1.0000   1.0000   1.0000   1.0000   1.0000   1.0000
     1.0000   1.0000   1.0000   1.0000   1.0000   1.0000   1.0000   1.0000
     1.0000   1.0000   1.0000   1.0000   1.0000   1.0000   1.0000   1.0000
     0.0000   0.0000   0.0000   0.0000   0.0000   0.0000   0.0000   0.0000
     0.0000   0.0000

          k = 0.0000 0.2271 0.0000 ( 34607 PWs)   bands (ev):

   -84.4224 -84.4218 -84.4114 -84.4107 -50.6098 -50.6092 -50.5564 -50.5559
   -50.3845 -50.3838 -50.3413 -50.3403 -50.3185 -50.3178 -50.2814 -50.2807
   -44.0810 -16.2710 -16.0845 -16.0694 -16.0342 -15.8123 -15.6971 -15.5595
   -13.7236 -13.4725 -13.4524 -13.4213 -13.2122 -13.1935 -13.0264 -13.0047
   -12.9736 -12.9172 -12.7737 -12.7486  -3.7396  -3.3492  -3.0093  -2.6804
    -2.0256  -1.7716  -1.3281  -1.2862  -1.1386  -1.0334  -0.9758  -0.8100
    -0.7146  -0.5691  -0.3207   0.0100   0.0792   0.2516   0.6886   0.7698
     0.7994   0.9230   0.9840   1.0657   1.1115   1.2653   1.3990   1.4636
     1.6050   1.8711   1.9359   1.9388   1.9812   2.0475   2.0626   2.1596
     2.3038   2.4094   2.6289   2.6775   2.7762   2.8587   2.9921   3.0009
     3.1384   3.2127   3.2439   3.2977   3.4566   3.5522   3.7192   3.7397
     3.8350   3.8649   3.9363   4.1131   4.2795   4.2927   4.3026   4.5153
     4.5271   4.7175   4.8054   4.9544   5.1449   5.2708   5.5641   5.5908
    10.2467  12.2241  12.5917  12.9243  13.1916  13.5790  14.1244  14.2621
    14.3129  14.4706

     occupation numbers 
     1.0000   1.0000   1.0000   1.0000   1.0000   1.0000   1.0000   1.0000
     1.0000   1.0000   1.0000   1.0000   1.0000   1.0000   1.0000   1.0000
     1.0000   1.0000   1.0000   1.0000   1.0000   1.0000   1.0000   1.0000
     1.0000   1.0000   1.0000   1.0000   1.0000   1.0000   1.0000   1.0000
     1.0000   1.0000   1.0000   1.0000   1.0000   1.0000   1.0000   1.0000
     1.0000   1.0000   1.0000   1.0000   1.0000   1.0000   1.0000   1.0000
     1.0000   1.0000   1.0000   1.0000   1.0000   1.0000   1.0000   1.0000
     1.0000   1.0000   1.0000   1.0000   1.0000   1.0000   1.0000   1.0000
     1.0000   1.0000   1.0000   1.0000   1.0000   1.0000   1.0000   1.0000
     1.0000   1.0000   1.0000   1.0000   1.0000   1.0000   1.0000   1.0000
     1.0000   1.0000   1.0000   1.0000   1.0000   1.0000   1.0000   1.0000
     1.0000   1.0000   1.0000   1.0000   1.0000   1.0000   1.0000   1.0000
     1.0000   1.0000   1.0000   1.0000   1.0000   1.0000   1.0000   1.0000
     0.0000   0.0000   0.0000   0.0000   0.0000   0.0000   0.0000   0.0000
     0.0000   0.0000

          k = 0.0000 0.2271 0.2220 ( 34613 PWs)   bands (ev):

   -84.4224 -84.4218 -84.4114 -84.4107 -50.6098 -50.6092 -50.5564 -50.5559
   -50.3845 -50.3838 -50.3413 -50.3403 -50.3185 -50.3178 -50.2814 -50.2807
   -44.0810 -16.2623 -16.1130 -16.0836 -15.9894 -15.8044 -15.6916 -15.5601
   -13.7188 -13.4708 -13.4581 -13.4211 -13.2282 -13.2011 -13.0431 -13.0164
   -12.9681 -12.9106 -12.7793 -12.7523  -3.7142  -3.3393  -3.0108  -2.6971
    -1.9770  -1.7487  -1.3274  -1.2790  -1.1314  -1.0549  -0.9078  -0.8254
    -0.6706  -0.5631  -0.3611  -0.0336   0.1226   0.2589   0.6757   0.7785
     0.8480   0.9199   0.9556   1.0586   1.1077   1.2476   1.4302   1.4792
     1.5531   1.8768   1.9031   1.9195   1.9348   2.0292   2.0567   2.0943
     2.3881   2.4628   2.5788   2.6954   2.7552   2.8942   2.9311   2.9704
     3.1542   3.1710   3.2494   3.3608   3.4506   3.5963   3.6387   3.7502
     3.7803   3.8769   3.9578   4.0455   4.2682   4.3044   4.3797   4.5206
     4.5469   4.7098   4.8505   4.9233   5.1249   5.2831   5.5458   5.5754
    10.3946  12.2930  12.6641  12.9436  13.2176  13.5516  14.0376  14.2032
    14.2879  14.4054

     occupation numbers 
     1.0000   1.0000   1.0000   1.0000   1.0000   1.0000   1.0000   1.0000
     1.0000   1.0000   1.0000   1.0000   1.0000   1.0000   1.0000   1.0000
     1.0000   1.0000   1.0000   1.0000   1.0000   1.0000   1.0000   1.0000
     1.0000   1.0000   1.0000   1.0000   1.0000   1.0000   1.0000   1.0000
     1.0000   1.0000   1.0000   1.0000   1.0000   1.0000   1.0000   1.0000
     1.0000   1.0000   1.0000   1.0000   1.0000   1.0000   1.0000   1.0000
     1.0000   1.0000   1.0000   1.0000   1.0000   1.0000   1.0000   1.0000
     1.0000   1.0000   1.0000   1.0000   1.0000   1.0000   1.0000   1.0000
     1.0000   1.0000   1.0000   1.0000   1.0000   1.0000   1.0000   1.0000
     1.0000   1.0000   1.0000   1.0000   1.0000   1.0000   1.0000   1.0000
     1.0000   1.0000   1.0000   1.0000   1.0000   1.0000   1.0000   1.0000
     1.0000   1.0000   1.0000   1.0000   1.0000   1.0000   1.0000   1.0000
     1.0000   1.0000   1.0000   1.0000   1.0000   1.0000   1.0000   1.0000
     0.0000   0.0000   0.0000   0.0000   0.0000   0.0000   0.0000   0.0000
     0.0000   0.0000

          k = 0.0000 0.2271 0.4441 ( 34660 PWs)   bands (ev):

   -84.4224 -84.4218 -84.4114 -84.4107 -50.6098 -50.6092 -50.5564 -50.5559
   -50.3845 -50.3838 -50.3413 -50.3403 -50.3185 -50.3178 -50.2814 -50.2807
   -44.0810 -16.2685 -16.1292 -16.0829 -15.9289 -15.7857 -15.6752 -15.5733
   -13.7065 -13.4874 -13.4624 -13.4115 -13.2665 -13.2182 -13.0859 -13.0462
   -12.9496 -12.8978 -12.7914 -12.7659  -3.6424  -3.3197  -3.0142  -2.7487
    -1.8466  -1.6889  -1.3313  -1.2642  -1.1069  -1.0602  -0.8499  -0.7503
    -0.5887  -0.5478  -0.4714  -0.0989   0.1907   0.2896   0.6642   0.7803
     0.8563   0.9224   1.0029   1.0969   1.1159   1.2084   1.4387   1.4838
     1.5362   1.8081   1.8406   1.8584   1.9171   1.9489   2.0074   2.0577
     2.3281   2.4429   2.6154   2.6910   2.7402   2.7788   2.9244   2.9935
     3.0424   3.1878   3.3564   3.3784   3.4587   3.5270   3.6455   3.6658
     3.7541   3.8957   3.9952   4.0378   4.2829   4.3142   4.5002   4.5244
     4.6108   4.6810   4.8760   4.9365   5.0817   5.2915   5.4924   5.5300
    10.7956  12.4668  12.8653  12.9970  13.3206  13.5199  13.7604  14.0656
    14.1266  14.4191

     occupation numbers 
     1.0000   1.0000   1.0000   1.0000   1.0000   1.0000   1.0000   1.0000
     1.0000   1.0000   1.0000   1.0000   1.0000   1.0000   1.0000   1.0000
     1.0000   1.0000   1.0000   1.0000   1.0000   1.0000   1.0000   1.0000
     1.0000   1.0000   1.0000   1.0000   1.0000   1.0000   1.0000   1.0000
     1.0000   1.0000   1.0000   1.0000   1.0000   1.0000   1.0000   1.0000
     1.0000   1.0000   1.0000   1.0000   1.0000   1.0000   1.0000   1.0000
     1.0000   1.0000   1.0000   1.0000   1.0000   1.0000   1.0000   1.0000
     1.0000   1.0000   1.0000   1.0000   1.0000   1.0000   1.0000   1.0000
     1.0000   1.0000   1.0000   1.0000   1.0000   1.0000   1.0000   1.0000
     1.0000   1.0000   1.0000   1.0000   1.0000   1.0000   1.0000   1.0000
     1.0000   1.0000   1.0000   1.0000   1.0000   1.0000   1.0000   1.0000
     1.0000   1.0000   1.0000   1.0000   1.0000   1.0000   1.0000   1.0000
     1.0000   1.0000   1.0000   1.0000   1.0000   1.0000   1.0000   1.0000
     0.0000   0.0000   0.0000   0.0000   0.0000   0.0000   0.0000   0.0000
     0.0000   0.0000

          k = 0.0000 0.2271 0.6661 ( 34677 PWs)   bands (ev):

   -84.4224 -84.4218 -84.4114 -84.4107 -50.6098 -50.6092 -50.5564 -50.5559
   -50.3845 -50.3838 -50.3413 -50.3403 -50.3185 -50.3178 -50.2814 -50.2807
   -44.0810 -16.2919 -16.1076 -16.0821 -15.8764 -15.7675 -15.6540 -15.5943
   -13.6845 -13.5326 -13.4540 -13.3974 -13.3104 -13.2298 -13.1360 -13.0844
   -12.9236 -12.8802 -12.8083 -12.7872  -3.5376  -3.3140  -3.0097  -2.8309
    -1.6946  -1.6197  -1.3270  -1.2658  -1.0562  -1.0243  -0.8459  -0.7012
    -0.5409  -0.4927  -0.4891  -0.1964   0.2985   0.3717   0.6510   0.7619
     0.8361   0.9612   1.0173   1.1412   1.1506   1.2538   1.4125   1.4267
     1.5774   1.7043   1.7268   1.7719   1.8711   1.9619   1.9947   2.0227
     2.1226   2.2952   2.5177   2.6214   2.6886   2.9014   2.9396   3.0287
     3.0343   3.1766   3.2715   3.4007   3.4323   3.5092   3.5511   3.6837
     3.7579   3.8560   4.1023   4.1840   4.3096   4.3701   4.5288   4.5599
     4.6354   4.7177   4.8295   4.9368   5.1119   5.2941   5.4095   5.4635
    11.3570  12.6867  13.0001  13.1377  13.3968  13.4737  13.6404  13.8531
    13.9549  14.0553

     occupation numbers 
     1.0000   1.0000   1.0000   1.0000   1.0000   1.0000   1.0000   1.0000
     1.0000   1.0000   1.0000   1.0000   1.0000   1.0000   1.0000   1.0000
     1.0000   1.0000   1.0000   1.0000   1.0000   1.0000   1.0000   1.0000
     1.0000   1.0000   1.0000   1.0000   1.0000   1.0000   1.0000   1.0000
     1.0000   1.0000   1.0000   1.0000   1.0000   1.0000   1.0000   1.0000
     1.0000   1.0000   1.0000   1.0000   1.0000   1.0000   1.0000   1.0000
     1.0000   1.0000   1.0000   1.0000   1.0000   1.0000   1.0000   1.0000
     1.0000   1.0000   1.0000   1.0000   1.0000   1.0000   1.0000   1.0000
     1.0000   1.0000   1.0000   1.0000   1.0000   1.0000   1.0000   1.0000
     1.0000   1.0000   1.0000   1.0000   1.0000   1.0000   1.0000   1.0000
     1.0000   1.0000   1.0000   1.0000   1.0000   1.0000   1.0000   1.0000
     1.0000   1.0000   1.0000   1.0000   1.0000   1.0000   1.0000   1.0000
     1.0000   1.0000   1.0000   1.0000   1.0000   1.0000   1.0000   1.0000
     0.0000   0.0000   0.0000   0.0000   0.0000   0.0000   0.0000   0.0000
     0.0000   0.0000

          k = 0.0000 0.2271 0.8882 ( 34672 PWs)   bands (ev):

   -84.4224 -84.4218 -84.4114 -84.4107 -50.6098 -50.6092 -50.5564 -50.5559
   -50.3845 -50.3838 -50.3413 -50.3403 -50.3185 -50.3178 -50.2814 -50.2807
   -44.0810 -16.3106 -16.0843 -16.0811 -15.8457 -15.7455 -15.6385 -15.6216
   -13.6526 -13.5832 -13.4474 -13.3872 -13.3362 -13.2359 -13.1661 -13.1147
   -12.8982 -12.8644 -12.8269 -12.8066  -3.4259  -3.3470  -2.9875  -2.9146
    -1.5978  -1.5782  -1.3222  -1.2676  -0.9741  -0.9468  -0.8779  -0.8312
    -0.4852  -0.4382  -0.3927  -0.2960   0.4367   0.5267   0.6021   0.6656
     0.8860   0.9091   1.0762   1.1446   1.2348   1.2808   1.3322   1.4030
     1.5557   1.5891   1.6976   1.7495   1.8363   1.9036   1.9431   1.9833
     2.1038   2.2396   2.3938   2.4978   2.6915   2.8683   2.9971   3.0483
     3.1371   3.1800   3.2141   3.3427   3.3622   3.4869   3.5462   3.6970
     3.7710   3.8361   4.2168   4.2480   4.3597   4.4859   4.5421   4.5618
     4.6039   4.7444   4.8194   4.9137   5.1750   5.2771   5.3310   5.4083
    11.9850  12.5801  12.9518  13.1947  13.5331  13.5516  13.6299  13.7243
    13.9022  13.9691

     occupation numbers 
     1.0000   1.0000   1.0000   1.0000   1.0000   1.0000   1.0000   1.0000
     1.0000   1.0000   1.0000   1.0000   1.0000   1.0000   1.0000   1.0000
     1.0000   1.0000   1.0000   1.0000   1.0000   1.0000   1.0000   1.0000
     1.0000   1.0000   1.0000   1.0000   1.0000   1.0000   1.0000   1.0000
     1.0000   1.0000   1.0000   1.0000   1.0000   1.0000   1.0000   1.0000
     1.0000   1.0000   1.0000   1.0000   1.0000   1.0000   1.0000   1.0000
     1.0000   1.0000   1.0000   1.0000   1.0000   1.0000   1.0000   1.0000
     1.0000   1.0000   1.0000   1.0000   1.0000   1.0000   1.0000   1.0000
     1.0000   1.0000   1.0000   1.0000   1.0000   1.0000   1.0000   1.0000
     1.0000   1.0000   1.0000   1.0000   1.0000   1.0000   1.0000   1.0000
     1.0000   1.0000   1.0000   1.0000   1.0000   1.0000   1.0000   1.0000
     1.0000   1.0000   1.0000   1.0000   1.0000   1.0000   1.0000   1.0000
     1.0000   1.0000   1.0000   1.0000   1.0000   1.0000   1.0000   1.0000
     0.0000   0.0000   0.0000   0.0000   0.0000   0.0000   0.0000   0.0000
     0.0000   0.0000

          k = 0.0000 0.4542 0.0000 ( 34657 PWs)   bands (ev):

   -84.4224 -84.4218 -84.4114 -84.4107 -50.6098 -50.6092 -50.5564 -50.5559
   -50.3845 -50.3838 -50.3413 -50.3403 -50.3185 -50.3178 -50.2814 -50.2807
   -44.0810 -16.2816 -16.0846 -16.0692 -15.9728 -15.7996 -15.7184 -15.5989
   -13.7045 -13.5189 -13.4547 -13.4362 -13.2039 -13.1788 -13.0465 -13.0289
   -12.9349 -12.8737 -12.7787 -12.7762  -3.6772  -3.4065  -2.9435  -2.7077
    -1.9732  -1.7969  -1.3434  -1.2990  -1.0382  -1.0057  -0.9275  -0.7646
    -0.7541  -0.4414  -0.2421  -0.1055   0.1321   0.3556   0.6583   0.7175
     0.7706   0.8280   0.8778   1.0213   1.0384   1.3025   1.3898   1.5766
     1.6780   1.7122   1.7794   1.8654   1.9330   2.0557   2.1286   2.2074
     2.3871   2.3928   2.5800   2.6487   2.7683   2.8106   2.8679   3.0099
     3.1275   3.2308   3.2465   3.3305   3.4491   3.5264   3.6308   3.6562
     3.7616   3.7982   4.1189   4.1667   4.2569   4.3366   4.3480   4.5112
     4.5630   4.6800   4.7398   4.8612   5.0576   5.4264   5.6355   5.6566
    10.6580  12.4565  12.5158  12.7938  13.4228  13.8018  13.9393  14.1209
    14.3937  14.5008

     occupation numbers 
     1.0000   1.0000   1.0000   1.0000   1.0000   1.0000   1.0000   1.0000
     1.0000   1.0000   1.0000   1.0000   1.0000   1.0000   1.0000   1.0000
     1.0000   1.0000   1.0000   1.0000   1.0000   1.0000   1.0000   1.0000
     1.0000   1.0000   1.0000   1.0000   1.0000   1.0000   1.0000   1.0000
     1.0000   1.0000   1.0000   1.0000   1.0000   1.0000   1.0000   1.0000
     1.0000   1.0000   1.0000   1.0000   1.0000   1.0000   1.0000   1.0000
     1.0000   1.0000   1.0000   1.0000   1.0000   1.0000   1.0000   1.0000
     1.0000   1.0000   1.0000   1.0000   1.0000   1.0000   1.0000   1.0000
     1.0000   1.0000   1.0000   1.0000   1.0000   1.0000   1.0000   1.0000
     1.0000   1.0000   1.0000   1.0000   1.0000   1.0000   1.0000   1.0000
     1.0000   1.0000   1.0000   1.0000   1.0000   1.0000   1.0000   1.0000
     1.0000   1.0000   1.0000   1.0000   1.0000   1.0000   1.0000   1.0000
     1.0000   1.0000   1.0000   1.0000   1.0000   1.0000   1.0000   1.0000
     0.0000   0.0000   0.0000   0.0000   0.0000   0.0000   0.0000   0.0000
     0.0000   0.0000

          k = 0.0000 0.4542 0.2220 ( 34661 PWs)   bands (ev):

   -84.4224 -84.4218 -84.4114 -84.4107 -50.6098 -50.6092 -50.5564 -50.5559
   -50.3845 -50.3838 -50.3413 -50.3403 -50.3185 -50.3178 -50.2814 -50.2807
   -44.0810 -16.2686 -16.1026 -16.0832 -15.9480 -15.7908 -15.7130 -15.5945
   -13.6983 -13.5137 -13.4563 -13.4403 -13.2180 -13.1950 -13.0668 -13.0413
   -12.9295 -12.8660 -12.7820 -12.7772  -3.6532  -3.3933  -2.9459  -2.7242
    -1.9304  -1.7717  -1.3300  -1.2942  -1.0409  -0.9920  -0.8850  -0.7873
    -0.6973  -0.4457  -0.2818  -0.1524   0.1724   0.3604   0.6241   0.6965
     0.7710   0.8362   0.9176   1.0101   1.0570   1.3158   1.3684   1.5509
     1.6339   1.7381   1.7585   1.8640   1.9039   2.0420   2.1300   2.2037
     2.3626   2.5060   2.5811   2.6461   2.7379   2.8535   2.8972   2.9565
     3.1214   3.1638   3.2429   3.3141   3.4042   3.5666   3.6084   3.6578
     3.7001   3.8085   4.0793   4.1753   4.2783   4.3640   4.3821   4.5260
     4.5635   4.6666   4.7159   4.8448   5.0903   5.4333   5.6370   5.6419
    10.7925  12.5269  12.5770  12.8693  13.4221  13.7430  13.9820  14.0422
    14.2844  14.4728

     occupation numbers 
     1.0000   1.0000   1.0000   1.0000   1.0000   1.0000   1.0000   1.0000
     1.0000   1.0000   1.0000   1.0000   1.0000   1.0000   1.0000   1.0000
     1.0000   1.0000   1.0000   1.0000   1.0000   1.0000   1.0000   1.0000
     1.0000   1.0000   1.0000   1.0000   1.0000   1.0000   1.0000   1.0000
     1.0000   1.0000   1.0000   1.0000   1.0000   1.0000   1.0000   1.0000
     1.0000   1.0000   1.0000   1.0000   1.0000   1.0000   1.0000   1.0000
     1.0000   1.0000   1.0000   1.0000   1.0000   1.0000   1.0000   1.0000
     1.0000   1.0000   1.0000   1.0000   1.0000   1.0000   1.0000   1.0000
     1.0000   1.0000   1.0000   1.0000   1.0000   1.0000   1.0000   1.0000
     1.0000   1.0000   1.0000   1.0000   1.0000   1.0000   1.0000   1.0000
     1.0000   1.0000   1.0000   1.0000   1.0000   1.0000   1.0000   1.0000
     1.0000   1.0000   1.0000   1.0000   1.0000   1.0000   1.0000   1.0000
     1.0000   1.0000   1.0000   1.0000   1.0000   1.0000   1.0000   1.0000
     0.0000   0.0000   0.0000   0.0000   0.0000   0.0000   0.0000   0.0000
     0.0000   0.0000

          k = 0.0000 0.4542 0.4441 ( 34644 PWs)   bands (ev):

   -84.4224 -84.4218 -84.4114 -84.4107 -50.6098 -50.6092 -50.5564 -50.5559
   -50.3845 -50.3838 -50.3413 -50.3403 -50.3185 -50.3178 -50.2814 -50.2807
   -44.0810 -16.2625 -16.1272 -16.0828 -15.8973 -15.7749 -15.6979 -15.5960
   -13.6839 -13.5009 -13.4710 -13.4397 -13.2580 -13.2268 -13.1145 -13.0746
   -12.9125 -12.8553 -12.7904 -12.7800  -3.5858  -3.3622  -2.9569  -2.7717
    -1.8145  -1.7046  -1.3087  -1.2752  -1.0291  -0.9733  -0.8153  -0.7331
    -0.6122  -0.4641  -0.3853  -0.2270   0.2229   0.3734   0.5873   0.6269
     0.7310   0.9125   1.0004   1.0558   1.1220   1.2401   1.4187   1.4751
     1.6041   1.7205   1.7399   1.8374   1.8663   2.0118   2.0853   2.1974
     2.3085   2.4768   2.6113   2.7070   2.7751   2.8131   2.8508   2.9307
     2.9906   3.1551   3.2495   3.3179   3.3713   3.4831   3.5748   3.6536
     3.6718   3.8483   4.0422   4.1770   4.3114   4.3730   4.4810   4.5591
     4.5862   4.6511   4.6710   4.7989   5.1745   5.4383   5.6054   5.6297
    11.1624  12.6835  12.7763  13.0777  13.4678  13.7087  13.7478  14.0060
    14.1239  14.3940

     occupation numbers 
     1.0000   1.0000   1.0000   1.0000   1.0000   1.0000   1.0000   1.0000
     1.0000   1.0000   1.0000   1.0000   1.0000   1.0000   1.0000   1.0000
     1.0000   1.0000   1.0000   1.0000   1.0000   1.0000   1.0000   1.0000
     1.0000   1.0000   1.0000   1.0000   1.0000   1.0000   1.0000   1.0000
     1.0000   1.0000   1.0000   1.0000   1.0000   1.0000   1.0000   1.0000
     1.0000   1.0000   1.0000   1.0000   1.0000   1.0000   1.0000   1.0000
     1.0000   1.0000   1.0000   1.0000   1.0000   1.0000   1.0000   1.0000
     1.0000   1.0000   1.0000   1.0000   1.0000   1.0000   1.0000   1.0000
[...]
     atom    9 type  4   force =     0.09844547    0.00269256   -0.02517319
     atom   10 type  3   force =    -0.01731203   -0.00074411   -0.00905281
     atom   11 type  3   force =     0.01131334   -0.00103197   -0.00434827
     atom   12 type  3   force =     0.01731203    0.00074411    0.00905281
     atom   13 type  3   force =    -0.01131334    0.00103197    0.00434827
     atom   14 type  3   force =    -0.11634779   -0.00297682    0.03016665
     atom   15 type  3   force =     0.11266618    0.00110682    0.03633182
     atom   16 type  3   force =     0.11634779    0.00297682   -0.03016665
     atom   17 type  3   force =    -0.11266618   -0.00110682   -0.03633182
     atom   18 type  3   force =     0.01196351    0.00705188   -0.00271642
     atom   19 type  3   force =    -0.01145020   -0.00709539   -0.00443240
     atom   20 type  3   force =    -0.01349790    0.00807980    0.00339758
     atom   21 type  3   force =     0.01683338   -0.00830717    0.00161721
     atom   22 type  3   force =    -0.01196351   -0.00705188    0.00271642
     atom   23 type  3   force =     0.01145020    0.00709539    0.00443240
     atom   24 type  3   force =     0.01349790   -0.00807980   -0.00339758
     atom   25 type  3   force =    -0.01683338    0.00830717   -0.00161721
     The non-local contrib.  to forces
     atom    1 type  2   force =     0.00000000    0.00000000    0.00000000
     atom    2 type  1   force =     0.09046729   -0.06220974    0.11219498
     atom    3 type  1   force =     0.08101966    0.00769789    0.08572792
     atom    4 type  1   force =    -0.09046729    0.06220974   -0.11219498
     atom    5 type  1   force =    -0.08101966   -0.00769789   -0.08572792
     atom    6 type  4   force =     0.07711047    0.00568476    0.00281280
     atom    7 type  4   force =    -0.06826281    0.00425781    0.02210056
     atom    8 type  4   force =    -0.07711047   -0.00568476   -0.00281280
     atom    9 type  4   force =     0.06826281   -0.00425781   -0.02210056
     atom   10 type  3   force =     0.34515880    0.02062347   -1.44834713
     atom   11 type  3   force =    -0.22466760    0.02497390   -1.42095021
     atom   12 type  3   force =    -0.34515880   -0.02062347    1.44834713
     atom   13 type  3   force =     0.22466760   -0.02497390    1.42095021
     atom   14 type  3   force =     1.15621427    0.02317103   -0.61828146
     atom   15 type  3   force =    -1.13194189   -0.01427163   -0.71090113
     atom   16 type  3   force =    -1.15621427   -0.02317103    0.61828146
     atom   17 type  3   force =     1.13194189    0.01427163    0.71090113
     atom   18 type  3   force =    -0.49071190   -1.13022445    0.73594686
     atom   19 type  3   force =     0.54139821    1.14194612    0.81369445
     atom   20 type  3   force =     0.52489423   -1.16065073   -0.74925122
     atom   21 type  3   force =    -0.59263874    1.14422180   -0.67039117
     atom   22 type  3   force =     0.49071190    1.13022445   -0.73594686
     atom   23 type  3   force =    -0.54139821   -1.14194612   -0.81369445
     atom   24 type  3   force =    -0.52489423    1.16065073    0.74925122
     atom   25 type  3   force =     0.59263874   -1.14422180    0.67039117
     The ionic contribution  to forces
     atom    1 type  2   force =    -0.00000898    0.00005378   -0.00003735
     atom    2 type  1   force =    -2.97489441    1.25978166   -0.89227671
     atom    3 type  1   force =    -8.17439972   -2.09094987   -1.06599441
     atom    4 type  1   force =     2.97464328   -1.25974808    0.89213136
     atom    5 type  1   force =     8.17449952    2.09118456    1.06592403
     atom    6 type  4   force =    -2.92168127    0.10057513    0.79770015
     atom    7 type  4   force =     0.17892432   -1.61479373    1.32321701
     atom    8 type  4   force =     2.92173080   -0.10057261   -0.79782677
     atom    9 type  4   force =    -0.17909276    1.61478558   -1.32286321
     atom   10 type  3   force =   -11.21158769   -0.05664968    2.17911810
     atom   11 type  3   force =     6.04367406   -2.67261850    1.17510059
     atom   12 type  3   force =    11.21176076    0.05663467   -2.17882480
     atom   13 type  3   force =    -6.04360847    2.67260576   -1.17547866
     atom   14 type  3   force =     0.57254115    2.49277337    4.68039268
     atom   15 type  3   force =    -2.96115810    0.09793662    7.10503452
     atom   16 type  3   force =    -0.57213382   -2.49277566   -4.68028451
     atom   17 type  3   force =     2.96102028   -0.09789022   -7.10500148
     atom   18 type  3   force =    -4.15825890    3.34534644   -2.58326292
     atom   19 type  3   force =     1.01231699   -2.85225452   -3.00571600
     atom   20 type  3   force =     4.79387242    3.42860780    2.79895386
     atom   21 type  3   force =     1.95037016   -3.02979980    0.36222710
     atom   22 type  3   force =     4.15824412   -3.34557278    2.58315103
     atom   23 type  3   force =    -1.01242387    2.85209006    3.00581908
     atom   24 type  3   force =    -4.79383033   -3.42859504   -2.79894701
     atom   25 type  3   force =    -1.95051956    3.02984503   -0.36225565
     The local contribution  to forces
     atom    1 type  2   force =    -0.00438798   -0.00181451   -0.00229833
     atom    2 type  1   force =     2.86336196   -1.20334556    0.77843130
     atom    3 type  1   force =     8.11367282    2.07604823    0.96921916
     atom    4 type  1   force =    -2.88455610    1.19204054   -0.78881862
     atom    5 type  1   force =    -8.13125242   -2.08477805   -0.98038897
     atom    6 type  4   force =     2.96609417   -0.10428192   -0.77383272
     atom    7 type  4   force =    -0.21621743    1.60757761   -1.31657466
     atom    8 type  4   force =    -2.96595166    0.10418340    0.77373835
     atom    9 type  4   force =     0.21633175   -1.60752381    1.31664116
     atom   10 type  3   force =    10.85094854    0.03410293   -0.75280670
     atom   11 type  3   force =    -5.81263112    2.64559401    0.22716817
     atom   12 type  3   force =   -10.85438700   -0.03681568    0.75177081
     atom   13 type  3   force =     5.80766621   -2.64799939   -0.23085046
     atom   14 type  3   force =    -1.83831758   -2.52010359   -4.03851041
     atom   15 type  3   force =     4.19604048   -0.08404382   -6.36534833
     atom   16 type  3   force =     1.83540928    2.51727301    4.03606089
     atom   17 type  3   force =    -4.19948278    0.08125390    6.36234713
     atom   18 type  3   force =     4.65430928   -2.21886544    1.84987129
     atom   19 type  3   force =    -1.56314049    1.71158155    2.19380862
     atom   20 type  3   force =    -5.33054847   -2.27102884   -2.05442310
     atom   21 type  3   force =    -1.34826437    1.88600498    0.30260146
     atom   22 type  3   force =    -4.65947847    2.21672594   -1.85233405
     atom   23 type  3   force =     1.55837811   -1.71399845   -2.19608712
     atom   24 type  3   force =     5.32524513    2.26847571    2.05149984
     atom   25 type  3   force =     1.34338328   -1.88823227   -0.30490563
     The core correction contribution to forces
     atom    1 type  2   force =     0.00000000    0.00000000    0.00000000
     atom    2 type  1   force =    -0.00075068    0.00082342    0.00001784
     atom    3 type  1   force =    -0.00033527   -0.00002823    0.00128445
     atom    4 type  1   force =     0.00147658   -0.00044290    0.00033363
     atom    5 type  1   force =     0.00093240    0.00033801   -0.00091845
     atom    6 type  4   force =    -0.00744675   -0.00036661   -0.00137792
     atom    7 type  4   force =     0.00709210    0.00029271   -0.00335906
     atom    8 type  4   force =     0.00746563    0.00037306    0.00138758
     atom    9 type  4   force =    -0.00707117   -0.00028480    0.00336116
     atom   10 type  3   force =    -0.00347197   -0.00018571    0.01260418
     atom   11 type  3   force =     0.00248447   -0.00019105    0.01229980
     atom   12 type  3   force =     0.00346825    0.00018422   -0.01260775
     atom   13 type  3   force =    -0.00248767    0.00018947   -0.01230433
     atom   14 type  3   force =    -0.00803406   -0.00023503    0.00539526
     atom   15 type  3   force =     0.00792990    0.00011304    0.00605934
     atom   16 type  3   force =     0.00802899    0.00023322   -0.00539676
     atom   17 type  3   force =    -0.00793570   -0.00011486   -0.00606121
     atom   18 type  3   force =     0.00402549    0.00960875   -0.00655565
     atom   19 type  3   force =    -0.00446354   -0.00965787   -0.00730974
     atom   20 type  3   force =    -0.00434167    0.00987947    0.00665561
     atom   21 type  3   force =     0.00485095   -0.00982274    0.00601224
     atom   22 type  3   force =    -0.00402879   -0.00961375    0.00655497
     atom   23 type  3   force =     0.00445856    0.00965272    0.00730564
     atom   24 type  3   force =     0.00433966   -0.00988139   -0.00665637
     atom   25 type  3   force =    -0.00485439    0.00982098   -0.00601646
     The Hubbard contrib.    to forces
     atom    1 type  2   force =     0.00000000    0.00000000    0.00000000
     atom    2 type  1   force =     0.00000000    0.00000000    0.00000000
     atom    3 type  1   force =     0.00000000    0.00000000    0.00000000
     atom    4 type  1   force =     0.00000000    0.00000000    0.00000000
     atom    5 type  1   force =     0.00000000    0.00000000    0.00000000
     atom    6 type  4   force =     0.00000000    0.00000000    0.00000000
     atom    7 type  4   force =     0.00000000    0.00000000    0.00000000
     atom    8 type  4   force =     0.00000000    0.00000000    0.00000000
     atom    9 type  4   force =     0.00000000    0.00000000    0.00000000
     atom   10 type  3   force =     0.00000000    0.00000000    0.00000000
     atom   11 type  3   force =     0.00000000    0.00000000    0.00000000
     atom   12 type  3   force =     0.00000000    0.00000000    0.00000000
     atom   13 type  3   force =     0.00000000    0.00000000    0.00000000
     atom   14 type  3   force =     0.00000000    0.00000000    0.00000000
     atom   15 type  3   force =     0.00000000    0.00000000    0.00000000
     atom   16 type  3   force =     0.00000000    0.00000000    0.00000000
     atom   17 type  3   force =     0.00000000    0.00000000    0.00000000
     atom   18 type  3   force =     0.00000000    0.00000000    0.00000000
     atom   19 type  3   force =     0.00000000    0.00000000    0.00000000
     atom   20 type  3   force =     0.00000000    0.00000000    0.00000000
     atom   21 type  3   force =     0.00000000    0.00000000    0.00000000
     atom   22 type  3   force =     0.00000000    0.00000000    0.00000000
     atom   23 type  3   force =     0.00000000    0.00000000    0.00000000
     atom   24 type  3   force =     0.00000000    0.00000000    0.00000000
     atom   25 type  3   force =     0.00000000    0.00000000    0.00000000
     The SCF correction term to forces
     atom    1 type  2   force =    -0.00000001   -0.00000000   -0.00000000
     atom    2 type  1   force =     0.00000959    0.00000051   -0.00000130
     atom    3 type  1   force =     0.00000958   -0.00000100   -0.00000128
     atom    4 type  1   force =    -0.00000965   -0.00000054    0.00000128
     atom    5 type  1   force =    -0.00000962    0.00000098    0.00000126
     atom    6 type  4   force =     0.00000264    0.00000028   -0.00000082
     atom    7 type  4   force =     0.00000177   -0.00000018    0.00000054
     atom    8 type  4   force =    -0.00000264   -0.00000028    0.00000082
     atom    9 type  4   force =    -0.00000177    0.00000018   -0.00000054
     atom   10 type  3   force =     0.00000574    0.00000026    0.00000566
     atom   11 type  3   force =     0.00000226   -0.00000018    0.00000093
     atom   12 type  3   force =    -0.00000574   -0.00000026   -0.00000566
     atom   13 type  3   force =    -0.00000226    0.00000018   -0.00000093
     atom   14 type  3   force =    -0.00000460    0.00000006   -0.00000085
     atom   15 type  3   force =     0.00000282   -0.00000007    0.00000241
     atom   16 type  3   force =     0.00000459   -0.00000006    0.00000085
     atom   17 type  3   force =    -0.00000283    0.00000006   -0.00000241
     atom   18 type  3   force =     0.00000590    0.00000116   -0.00000367
     atom   19 type  3   force =     0.00000150   -0.00000393    0.00000051
     atom   20 type  3   force =    -0.00000604    0.00000095    0.00000384
     atom   21 type  3   force =    -0.00000159   -0.00000333   -0.00000089
     atom   22 type  3   force =    -0.00000591   -0.00000116    0.00000367
     atom   23 type  3   force =    -0.00000150    0.00000393   -0.00000052
     atom   24 type  3   force =     0.00000604   -0.00000096   -0.00000385
     atom   25 type  3   force =     0.00000159    0.00000333    0.00000089

     Total force =     0.331559     Total SCF correction =     0.000030


     Computing stress (Cartesian axis) and pressure


     negative rho (up, down):  0.000E+00 9.605E-04
          total   stress  (Ry/bohr**3)                   (kbar)     P=       73.53
   0.00114326   0.00002689  -0.00003788          168.18        3.96       -5.57
   0.00002689   0.00013155  -0.00001799            3.96       19.35       -2.65
  -0.00003788  -0.00001799   0.00022478           -5.57       -2.65       33.07

     kinetic stress (kbar)  28104.75    -21.34      3.58
                              -21.34  28189.63      1.41
                                3.58      1.41  27976.45

     local   stress (kbar)  -6372.20  -3022.46   1012.39
                            -3022.46 -13256.16   1015.59
                             1012.39   1015.59  -6761.25

     nonloc. stress (kbar)  -7180.87     -0.36      2.87
                               -0.36  -7097.72      1.31
                                2.87      1.31  -7120.70

     hartree stress (kbar)  13884.12   1219.09   -384.48
                             1219.09  18113.17   -411.13
                             -384.48   -411.13  14799.71

     exc-cor stress (kbar)  -2962.03      1.66     -0.68
                                1.66  -2970.54     -0.33
                               -0.68     -0.33  -2967.95

     corecor stress (kbar)  -3282.94     -0.70      0.23
                               -0.70  -3280.20     -0.03
                                0.23     -0.03  -3281.11

     ewald   stress (kbar) -22022.65   1828.07   -639.49
                             1828.07 -19678.83   -609.47
                             -639.49   -609.47 -22612.08

     hubbard stress (kbar)      0.00      0.00      0.00
                                0.00      0.00      0.00
                                0.00      0.00      0.00

     DFT-D   stress (kbar)      0.00      0.00      0.00
                                0.00      0.00      0.00
                                0.00      0.00      0.00

     XDM     stress (kbar)      0.00      0.00      0.00
                                0.00      0.00      0.00
                                0.00      0.00      0.00

     dft-nl  stress (kbar)      0.00      0.00      0.00
                                0.00      0.00      0.00
                                0.00      0.00      0.00

     TS-vdW  stress (kbar)      0.00      0.00      0.00
                                0.00      0.00      0.00
                                0.00      0.00      0.00



     init_run     :    309.09s CPU    327.95s WALL (       1 calls)
     electrons    :  21078.25s CPU  21986.28s WALL (       1 calls)
     forces       :    205.32s CPU    207.79s WALL (       1 calls)
     stress       :   1518.53s CPU   1527.47s WALL (       1 calls)

     Called by init_run:
     wfcinit      :    293.13s CPU    310.28s WALL (       1 calls)
     wfcinit:atom :      6.51s CPU      6.63s WALL (     316 calls)
     wfcinit:wfcr :    270.70s CPU    287.44s WALL (     316 calls)
     potinit      :      5.79s CPU      6.09s WALL (       1 calls)
     hinit0       :      5.54s CPU      5.97s WALL (       1 calls)

     Called by electrons:
     c_bands      :  19045.69s CPU  19781.52s WALL (      22 calls)
     sum_band     :   1895.45s CPU   2044.39s WALL (      22 calls)
     v_of_rho     :     36.26s CPU     37.67s WALL (      23 calls)
     v_h          :      1.83s CPU      1.93s WALL (      23 calls)
     v_xc         :     37.46s CPU     38.85s WALL (      25 calls)
     newd         :     76.02s CPU     98.31s WALL (      23 calls)
     PAW_pot      :     18.51s CPU     18.61s WALL (      23 calls)
     mix_rho      :      8.28s CPU      8.61s WALL (      22 calls)

     Called by c_bands:
     init_us_2    :    298.43s CPU    303.24s WALL (   14852 calls)
     cegterg      :  18549.70s CPU  19278.79s WALL (    6952 calls)

     Called by sum_band:
     sum_band:wei :      0.34s CPU      0.34s WALL (      22 calls)
     sum_band:loo :   1673.38s CPU   1792.20s WALL (      22 calls)
     sum_band:buf :     78.35s CPU     79.45s WALL (    6952 calls)
     sum_band:ini :    140.16s CPU    142.25s WALL (    6952 calls)
     sum_band:cal :    845.18s CPU    850.80s WALL (    6952 calls)
     sum_band:bec :      3.73s CPU      3.83s WALL (    6952 calls)
     addusdens    :    216.57s CPU    246.19s WALL (      22 calls)
     addusd:skk   :      1.31s CPU      1.34s WALL (      66 calls)
     addusd:dgemm :     66.86s CPU     92.61s WALL (     132 calls)
     addusd:qvan2 :    145.47s CPU    146.81s WALL (     132 calls)

     Called by *egterg:
     cdiaghg      :    725.89s CPU    743.41s WALL (   33511 calls)
     cegterg:over :   2132.50s CPU   2154.88s WALL (   26559 calls)
     cegterg:upda :   1371.14s CPU   1376.30s WALL (   26559 calls)
     cegterg:last :   2736.48s CPU   2746.95s WALL (   14428 calls)
     h_psi        :   8123.55s CPU   8792.74s WALL (   33827 calls)
     s_psi        :   2420.03s CPU   2429.42s WALL (   33827 calls)
     g_psi        :     33.75s CPU     34.08s WALL (   26559 calls)

     Called by h_psi:
     h_psi:calbec :   2500.03s CPU   2519.74s WALL (   33827 calls)
     vloc_psi     :   2992.17s CPU   3627.37s WALL (   33827 calls)
     add_vuspsi   :   2424.92s CPU   2433.98s WALL (   33827 calls)

     General routines
     calbec       :   3546.91s CPU   3573.64s WALL (   42359 calls)
     fft          :     31.54s CPU     33.64s WALL (     613 calls)
     ffts         :      0.27s CPU      0.33s WALL (      90 calls)
     fftw         :   3315.70s CPU   4014.48s WALL ( 4844894 calls)
     interpolate  :      2.77s CPU      2.95s WALL (      46 calls)

     Parallel routines
     fft_scatt_xy :    280.78s CPU    336.87s WALL ( 4845597 calls)
     fft_scatt_yz :   1332.53s CPU   1699.84s WALL ( 4845597 calls)

     PAW routines
     PAW_pot      :     18.51s CPU     18.61s WALL (      23 calls)
     PAW_symme    :      0.05s CPU      0.06s WALL (      45 calls)

     PWSCF        :      6h25m CPU      6h40m WALL


   This run was terminated on:  10:14: 5  19Dec2022            

=------------------------------------------------------------------------------=
   JOB DONE.
=------------------------------------------------------------------------------=
Note: The following floating-point exceptions are signalling: IEEE_UNDERFLOW_FLAG IEEE_DENORMAL
Note: The following floating-point exceptions are signalling: IEEE_DENORMAL
Note: The following floating-point exceptions are signalling: IEEE_DENORMAL
Note: The following floating-point exceptions are signalling: IEEE_DENORMAL
Note: The following floating-point exceptions are signalling: IEEE_DENORMAL
Note: The following floating-point exceptions are signalling: IEEE_DENORMAL
Note: The following floating-point exceptions are signalling: IEEE_DENORMAL
Note: The following floating-point exceptions are signalling: IEEE_DENORMAL
Note: The following floating-point exceptions are signalling: IEEE_DENORMAL
