2.51242846 0 0 -1.256214686084 2.175826608231 0 0.000000000000 0.000000000000 7.707265
2.38678 0 0 1.130580000000 2.175802224468 0 0.000000000000 0.000000000000 7.7073
2.428653333333 0 0 1.172453333333 2.175802224468 0 0.000000000000 0.000000000000 7.7073
2.470526666667 0 0 1.214326666667 2.175802224468 0 0.000000000000 0.000000000000 7.7073
2.554273333333 0 0 -1.256200000000 2.175802224468 0 0.000000000000 0.000000000000 7.7073
2.596146666667 0 0 -1.256200000000 2.175802224468 0 0.000000000000 0.000000000000 7.7073
2.63802 0 0 -1.256200000000 2.175802224468 0 0.000000000000 0.000000000000 7.7073
2.38678 0 0 -1.193390000000 2.067012113245 0 0.000000000000 0.000000000000 7.7073
2.428653333333 0 0 -1.214326666667 2.103275483652 0 0.000000000000 0.000000000000 7.7073
2.470526666667 0 0 -1.235263333333 2.13953885406 0 0.000000000000 0.000000000000 7.7073
2.554273333333 0 0 -1.277136666667 2.212065594876 0 0.000000000000 0.000000000000 7.7073
2.596146666667 0 0 -1.298073333333 2.248328965284 0 0.000000000000 0.000000000000 7.7073
2.63802 0 0 -1.319010000000 2.284592335691 0 0.000000000000 0.000000000000 7.7073
2.38678 0 0 -1.193390000000 2.067012113245 0 0.000000000000 0.000000000000 7.321935
2.428653333333 0 0 -1.214326666667 2.103275483652 0 0.000000000000 0.000000000000 7.45039
2.470526666667 0 0 -1.235263333333 2.13953885406 0 0.000000000000 0.000000000000 7.578845
2.554273333333 0 0 -1.277136666667 2.212065594876 0 0.000000000000 0.000000000000 7.835755
2.596146666667 0 0 -1.298073333333 2.248328965284 0 0.000000000000 0.000000000000 7.96421
2.63802 0 0 -1.319010000000 2.284592335691 0 0.000000000000 0.000000000000 8.092665