-1.56027e-06 1.450551797429 1.92681625 1.256215334186 0.725274810801 5.78044875 -1.56027e-06 1.450551797429 5.78044875 1.256215334186 0.725274810801 1.92681625
-0.043186875792 1.444055473791 1.919532452794 1.171142219528 0.7187866151 5.773182452794 -0.043186875792 1.444055473791 5.773182452794 1.171142219528 0.7187866151 1.919532452794
-0.026114198971 1.446546836398 1.935655231879 1.202172702043 0.721277977707 5.789305231879 -0.026114198971 1.446546836398 5.789305231879 1.202172702043 0.721277977707 1.935655231879
-0.010542757379 1.460047779501 1.922943564577 1.231701949328 0.73477892081 5.776593564577 -0.010542757379 1.460047779501 5.776593564577 1.231701949328 0.73477892081 1.922943564577
0.009866425256 1.444184740524 1.92863090755 1.280026743349 0.718915881833 5.78228090755 0.009866425256 1.444184740524 5.78228090755 1.280026743349 0.718915881833 1.92863090755
0.034862970744 1.457223880931 1.936741813618 1.318981094531 0.73195502224 5.790391813618 0.034862970744 1.457223880931 5.790391813618 1.318981094531 0.73195502224 1.936741813618
0.041155874228 1.458124778309 1.926654414404 1.339231803708 0.732855919618 5.780304414404 0.041155874228 1.458124778309 5.780304414404 1.339231803708 0.732855919618 1.926654414404
0.005144439884 1.380994061138 1.921161505166 1.198536826664 0.691988645382 5.774811505166 0.005144439884 1.380994061138 5.774811505166 1.198536826664 0.691988645382 1.921161505166
-0.002413518491 1.409291716774 1.936863339681 1.211915576829 0.708198486706 5.790513339681 -0.002413518491 1.409291716774 5.790513339681 1.211915576829 0.708198486706 1.936863339681
-0.003056432616 1.424749755305 1.929176726005 1.232209371244 0.711568710925 5.782826726005 -0.003056432616 1.424749755305 5.782826726005 1.232209371244 0.711568710925 1.929176726005
-0.005448348396 1.477189366151 1.929372294337 1.271690872544 0.739832693149 5.783022294337 -0.005448348396 1.477189366151 5.783022294337 1.271690872544 0.739832693149 1.929372294337
-0.001948564795 1.490662120525 1.928384895884 1.296127364685 0.741217633211 5.782034895884 -0.001948564795 1.490662120525 5.782034895884 1.296127364685 0.741217633211 1.928384895884
-0.00600204179 1.525070136071 1.922420743748 1.31301059623 0.763537834446 5.776070743748 -0.00600204179 1.525070136071 5.776070743748 1.31301059623 0.763537834446 1.922420743748
-0.00686715162 1.377837946402 1.821736315686 1.18652523516 0.688832530646 5.482703815686 -0.00686715162 1.377837946402 5.482703815686 1.18652523516 0.688832530646 1.821736315686
0.001039285753 1.394272445474 1.85979471245 1.215368381073 0.693179215406 5.58498971245 0.001039285753 1.394272445474 5.58498971245 1.215368381073 0.693179215406 1.85979471245
0.006390428702 1.435591298032 1.893250215974 1.241656232562 0.722410253652 5.682672715974 0.006390428702 1.435591298032 5.682672715974 1.241656232562 0.722410253652 1.893250215974
0.00428133902 1.47411126381 1.963464387246 1.28142055996 0.736754590808 5.881341887246 0.00428133902 1.47411126381 5.881341887246 1.28142055996 0.736754590808 1.963464387246
0.002263042922 1.501866668154 1.993420293036 1.300338972402 0.75242218084 5.975525293036 0.002263042922 1.501866668154 5.975525293036 1.300338972402 0.75242218084 1.993420293036
0.00140054136 1.514247597681 2.0150522947 1.32041317938 0.752715296055 6.0613847947 0.00140054136 1.514247597681 6.0613847947 1.32041317938 0.752715296055 2.0150522947