-746.656954205726
-746.350884118316
-746.529900237876
-746.629207452106
-746.621001047166
-746.527782649069
-746.383623886203
-746.010441988994
-746.389793928275
-746.598682417617
-746.583129623083
-746.384683088777
-746.092298687753
-746.003366352532
-746.385745692772
-746.596889052282
-746.576210179884
-746.386483665124
-746.094285798041