0 0 0 0 0 0 0 0 0 0 0 0
0.603170976740041 0.865868678454244 5.65642403067777e-06 -0.60309641478691 -0.866093392754372 -1.90261535577343e-05 0.603737904694025 0.86723367641692 5.91353421389039e-06 -0.603812209536974 -0.867008962116792 7.19908512995352e-06
0.336644133067253 0.505902851998323 5.14220366425252e-07 -0.33656468602064 -0.50612910895955 1.82548230080964e-05 0.337192291977862 0.50681250782653 -9.51307677886716e-06 -0.337271739024475 -0.506586250865303 -9.25596659565453e-06
0.138141444787396 0.219965475043898 -2.31399164891363e-05 -0.138005947720843 -0.219389291123318 -2.10830350234353e-05 0.138145044329961 0.220175276953399 2.00545942905848e-05 -0.138280284286331 -0.220751460873979 2.41683572219868e-05
-0.0830445322962124 -0.161626403142403 7.45619531316615e-06 0.083104438968901 0.161368521628641 1.31126193438439e-05 -0.0834607936828337 -0.162308516458466 -7.9704156795914e-06 0.0834011441203284 0.162566397972229 -1.28555091606313e-05
-0.11730163599728 -0.271349202269124 4.13947394972328e-05 0.117203162797109 0.27156414638229 1.82548230080964e-05 -0.118207178062554 -0.273479874357407 -2.69965692373257e-05 0.118305651262725 0.273264930244242 -3.26529932680035e-05
-0.109729741101668 -0.336377766917445 -3.08532219855151e-06 0.10958267407687 0.336723837224049 -1.0284407328505e-06 -0.109731026652584 -0.339155842447057 1.0284407328505e-06 0.109878093677381 0.338810029250636 2.82821201533888e-06
0.000107214946399665 -0.000102072742735412 7.71330549637878e-07 -0.000231399164891363 3.11103321687277e-05 5.14220366425252e-06 0.000198489061440147 -5.37360282914388e-05 2.57110183212626e-07 -7.40477327652362e-05 0.000124955549041336 -6.17064439710302e-06
7.99612669791266e-05 -0.000133440185087353 -3.70238663826181e-05 -7.79043855134256e-05 0.000135754176736266 -3.39385441840666e-05 0.000131383303621652 -6.17064439710302e-05 3.72809765658308e-05 -0.000133440185087353 5.96495625053292e-05 3.3681434000854e-05
6.5305986536007e-05 -8.7931682658718e-05 -1.79977128248838e-06 -0.000191289976310194 2.00545942905848e-05 -6.17064439710302e-06 0.000171235382019609 -3.3681434000854e-05 2.57110183212626e-07 -4.52513922454222e-05 0.000101558522368987 7.71330549637878e-06
0.000151695008095449 -8.07325975287645e-05 2.3397026672349e-05 -2.87963405198141e-05 2.51967979548373e-05 2.3397026672349e-05 2.85392303366015e-05 -2.51967979548373e-05 -2.28828063059237e-05 -0.000151437897912237 8.04754873455519e-05 -2.41683572219868e-05
0.000126241099957399 1.61979415423954e-05 2.82821201533888e-05 -7.71330549637878e-05 0.000194118188325533 2.82821201533888e-05 5.24504773753757e-05 -0.000144753033148708 -2.62252386876878e-05 -0.000101558522368987 -6.55630967192196e-05 -3.03390016190899e-05
0.0001282979814231 -2.3397026672349e-05 -0.000116728023178532 6.06780032381797e-05 -3.85665274818939e-05 -0.000115442472262469 -2.67394590541131e-05 -1.41410600766944e-05 0.000119556235193871 -0.000162236525607167 7.63617244141499e-05 0.00011261426024713
0.000208773468768652 -3.26529932680035e-05 -9.87303103536483e-05 -8.12468178951898e-05 3.54812052833424e-05 -9.95016409032862e-05 7.84186058798509e-05 -9.46165474222463e-05 9.82160899872231e-05 -0.000205945256753313 9.17883354069074e-05 0.000100015861269711
0.000107214946399665 -0.000156837211759702 4.78224940775484e-05 -0.000105672285300389 0.000142181931316582 5.14220366425252e-05 0.000130869083255227 -4.85938246271863e-05 -4.49942820622095e-05 -0.000132668854537715 6.29919948870933e-05 -5.39931384746514e-05
0.000401348995994909 2.80250099701762e-05 0.000133440185087353 -0.000177406026416712 0.000294905380144882 0.000133697295270565 -2.67394590541131e-05 -0.000212630121516842 -0.000131640413804864 -0.000197203510524084 -0.000110300268598216 -0.000135497066553054
1.90261535577343e-05 -4.31945107797211e-05 -0.000260195505411177 -0.000159151203408615 6.22206643374555e-05 -0.000258395734128689 0.000157351432126127 -6.17064439710302e-05 0.000258652844311902 -1.72263822752459e-05 4.26802904132959e-05 0.000259938395227965
3.39385441840666e-05 -0.000122641557392423 0.000134725736003416 -0.000145524363698346 -2.77678997869636e-05 0.000136268397102692 0.000134468625820203 2.62252386876878e-05 -0.000134468625820203 -2.28828063059237e-05 0.000124184218491698 -0.000136525507285904
1.87690433745217e-05 -3.13674423519404e-05 -0.000776986973668555 -4.67940533446979e-05 0.000250939538815523 -0.000773901651470004 8.35608095441034e-05 -0.000141410600766944 0.00078135784678317 -5.55357995739272e-05 -7.81614956966383e-05 0.000769530778355389