-0.340021538497346 0 0 0 -0.340021538497346 0 0 0 0.0691613802202645
11.0204706215941 2.78297236080514 0 2.78297236080514 1.82017384388028 0 0 0 0.0696992180129834
6.95035551135354 1.76389865018222 0 1.76389865018222 1.0132439861113 0 0 0 0.070159392916889
3.16971660096165 0.840137806862817 0 0.840137806862817 0.298146780951932 0 0 0 0.0703347132861454
-3.58595245552298 -0.766489651083605 0 -0.766489651083605 -0.902570304170998 0 0 0 0.068976048126812
-6.59139898821967 -1.4684388066265 0 -1.4684388066265 -1.40702741315915 0 0 0 0.0676612255458919
-9.36663677178298 -2.11420976215377 0 -2.11420976215377 -1.85825149527163 0 0 0 0.0665436270966512
13.4286780078029 0.000237327077175175 0 0.000237327077175175 13.4286780078029 0 0 0 0.0683501982264503
8.4085443495797 0 0 0 8.40879007693438 0 0 0 0.0692951140179864
3.8308885551846 0 0 0 3.83114282895037 0 0 0 0.0701795593542379
-4.12790096016221 0 0 0 -4.12790096016221 0 0 0 0.0668640044906764
-7.57570133698187 0 0 0 -7.57570133698187 0 0 0 0.0527884303688877
-10.6908138748665 0 0 0 -10.6908138748665 0 0 0 0.0492864639654864
13.4252858828154 0.000225460751063303 0 0.000225460751063303 13.4252858828154 0 0 0 0.176986689584693
8.40736594946984 0 0 0 8.40760348594352 0 0 0 0.135633326471924
3.83129996179025 0.000250035891260866 0 0.000250035891260866 3.83154999768151 0 0 0 0.0995142847218246
-4.1345234551284 0 0 0 -4.1345234551284 0 0 0 0.0312258488457097
-7.57840683972757 0 0 0 -7.57840683972757 0 0 0 0.0101552218458006
-10.6962778990168 0 0 0 -10.6962778990168 0 0 0 -0.0073059928160174