ITEM: TIMESTEP
500
ITEM: NUMBER OF ATOMS
4
ITEM: BOX BOUNDS xy xz yz pp pp pp
-1.1909095935792653e+00 2.4757208201594274e+00 -1.2267884234198450e+00
2.5124316981078421e-02 2.1499849861379161e+00 0.0000000000000000e+00
-3.0003178670925941e+00 1.1268113867092607e+01 0.0000000000000000e+00
ITEM: ATOMS id type x y z
1 1 0.261228 0.748109 -1.88746
4 2 -0.164904 0.776866 10.0584
3 2 1.47603 1.44956 -1.80428
2 1 1.04446 1.48878 10.1207
