ITEM: TIMESTEP
2000
ITEM: NUMBER OF ATOMS
4
ITEM: BOX BOUNDS xy xz yz pp pp pp
-1.1951003497060053e+00 2.4924619894273876e+00 -1.2142380102786245e+00
3.5993297628578613e-02 2.1391160054904184e+00 0.0000000000000000e+00
-1.0501380655109259e+01 1.8769176655109213e+01 0.0000000000000000e+00
ITEM: ATOMS id type x y z
3 2 -0.228986 0.673258 -9.31745
2 1 1.52563 0.146614 17.5888
1 1 -0.204863 2.09802 -9.39628
4 2 -0.920662 1.54618 17.5606
