ITEM: TIMESTEP
2500
ITEM: NUMBER OF ATOMS
4
ITEM: BOX BOUNDS xy xz yz pp pp pp
-1.2062236016222863e+00 2.4740081248153398e+00 -1.2438151268069475e+00
1.0378753825294629e-02 2.1647305492937048e+00 0.0000000000000000e+00
-1.5161868229759920e+01 2.3429664229758551e+01 0.0000000000000000e+00
ITEM: ATOMS id type x y z
3 2 1.76632 0.277274 -13.8723
2 1 1.98715 0.537249 22.0999
1 1 -0.695873 1.7039 -13.9146
4 2 -0.475174 1.94724 22.0946
