ITEM: TIMESTEP
4500
ITEM: NUMBER OF ATOMS
4
ITEM: BOX BOUNDS xy xz yz pp pp pp
-1.2151574288520204e+00 2.5053063568809026e+00 -1.2214507219711102e+00
2.9746903751378007e-02 2.1453623993676052e+00 0.0000000000000000e+00
-4.6081652786131301e+01 5.4349448786114877e+01 0.0000000000000000e+00
ITEM: ATOMS id type x y z
3 2 0.279637 0.716575 -44.8948
2 1 1.00949 0.0868183 52.9859
1 1 0.324963 2.15223 -44.9215
4 2 1.02141 1.50776 53.0356
