ITEM: TIMESTEP
5500
ITEM: NUMBER OF ATOMS
4
ITEM: BOX BOUNDS xy xz yz pp pp pp
-1.2062366127357171e+00 2.4797687113489451e+00 -1.2380675513867601e+00
1.5356301999134292e-02 2.1597530011198560e+00 0.0000000000000000e+00
-6.2914509097974999e+01 7.1182305097950646e+01 0.0000000000000000e+00
ITEM: ATOMS id type x y z
3 2 1.885 0.385432 -61.8542
2 1 1.87445 0.424819 69.9327
1 1 -0.561387 1.79517 -61.8406
4 2 -0.599749 1.85495 69.8785
