
     Program PWSCF v.6.7MaX starts on 13Dec2022 at 22:50: 2 

     This program is part of the open-source Quantum ESPRESSO suite
     for quantum simulation of materials; please cite
         "P. Giannozzi et al., J. Phys.:Condens. Matter 21 395502 (2009);
         "P. Giannozzi et al., J. Phys.:Condens. Matter 29 465901 (2017);
          URL http://www.quantum-espresso.org", 
     in publications or presentations arising from this work. More details at
     http://www.quantum-espresso.org/quote

     Parallel version (MPI), running on    24 processors

     MPI processes distributed on     1 nodes
     R & G space division:  proc/nbgrp/npool/nimage =      24
     Reading input from path1_cod-2.in

     Current dimensions of program PWSCF are:
     Max number of different atomic species (ntypx) = 10
     Max number of k-points (npk) =  40000
     Max angular momentum in pseudopotentials (lmaxx) =  3
     Message from routine read_pp_mesh:
     mesh size missing, using the one in header
     file Fe.pbe-spn-kjpaw_psl.0.2.1.UPF: wavefunction(s)  3D renormalized
     file O.pbe-n-kjpaw_psl.0.1.UPF: wavefunction(s)  2P renormalized

     Subspace diagonalization in iterative solution of the eigenvalue problem:
     a serial algorithm will be used


     Parallelization info
     --------------------
     sticks:   dense  smooth     PW     G-vecs:    dense   smooth      PW
     Min         827     306     82                53951    12161    1706
     Max         828     309     83                53954    12162    1709
     Sum       19863    7371   1983              1294859   291873   40977



     bravais-lattice index     =            0
     lattice parameter (alat)  =      19.6651  a.u.
     unit-cell volume          =    2160.3578 (a.u.)^3
     number of atoms/cell      =           25
     number of atomic types    =            4
     number of electrons       =       189.00
     number of Kohn-Sham states=          114
     kinetic-energy cutoff     =     100.0000  Ry
     charge density cutoff     =    1080.0000  Ry
     scf convergence threshold =      2.0E-10
     mixing beta               =       0.4000
     number of iterations used =            8  plain     mixing
     Exchange-correlation= PBE
                           (   1   4   3   4   0   0   0)

     celldm(1)=  19.665057  celldm(2)=   0.000000  celldm(3)=   0.000000
     celldm(4)=   0.000000  celldm(5)=   0.000000  celldm(6)=   0.000000

     crystal axes: (cart. coord. in units of alat)
               a(1) = (   1.000000   0.000000   0.000000 )  
               a(2) = (   0.000000   0.597590   0.000000 )  
               a(3) = (   0.000000   0.000000   0.475375 )  

     reciprocal axes: (cart. coord. in units 2 pi/alat)
               b(1) = (  1.000000  0.000000  0.000000 )  
               b(2) = (  0.000000  1.673388  0.000000 )  
               b(3) = (  0.000000  0.000000  2.103600 )  


     PseudoPot. # 1 for Fe read from file:
     /opt/QEpot/SSSP_precision_pseudos/Fe.pbe-spn-kjpaw_psl.0.2.1.UPF
     MD5 check sum: e86618425769142926afa95317d90200
     Pseudo is Projector augmented-wave + core cor, Zval = 16.0
     Generated using "atomic" code by A. Dal Corso  v.5.0.99 svn rev. 10869
     Shape of augmentation charge: PSQ
     Using radial grid of 1191 points,  6 beta functions with: 
                l(1) =   0
                l(2) =   0
                l(3) =   1
                l(4) =   1
                l(5) =   2
                l(6) =   2
     Q(r) pseudized with 0 coefficients 


     PseudoPot. # 2 for Na read from file:
     /opt/QEpot/SSSP_precision_pseudos/Na_ONCV_PBE-1.0.oncvpsp.upf
     MD5 check sum: 24a298df0a6742ae313db96548fdb2a4
     Pseudo is Norm-conserving, Zval =  9.0
     Generated using ONCVPSP code by D. R. Hamann
     Using radial grid of 1992 points,  4 beta functions with: 
                l(1) =   0
                l(2) =   0
                l(3) =   1
                l(4) =   1

     PseudoPot. # 3 for O  read from file:
     /opt/QEpot/SSSP_precision_pseudos/O.pbe-n-kjpaw_psl.0.1.UPF
     MD5 check sum: 0234752ac141de4415c5fc33072bef88
     Pseudo is Projector augmented-wave + core cor, Zval =  6.0
     Generated using "atomic" code by A. Dal Corso  v.5.0.99 svn rev. 10869
     Shape of augmentation charge: BESSEL
     Using radial grid of 1095 points,  4 beta functions with: 
                l(1) =   0
                l(2) =   0
                l(3) =   1
                l(4) =   1
     Q(r) pseudized with 0 coefficients 


     PseudoPot. # 4 for P  read from file:
     /opt/QEpot/SSSP_precision_pseudos/P.pbe-n-rrkjus_psl.1.0.0.UPF
     MD5 check sum: 8b930f418f0a4573dca56cd030ffe088
     Pseudo is Ultrasoft + core correction, Zval =  5.0
     Generated using "atomic" code by A. Dal Corso  v.5.1
     Using radial grid of 1147 points,  6 beta functions with: 
                l(1) =   0
                l(2) =   0
                l(3) =   1
                l(4) =   1
                l(5) =   2
                l(6) =   2
     Q(r) pseudized with 0 coefficients 


     atomic species   valence    mass     pseudopotential
        Fe            16.00    55.84500     Fe( 1.00)
        Na             9.00    22.98977     Na( 1.00)
        O              6.00    15.99940     O ( 1.00)
        P              5.00    30.97376     P ( 1.00)

     Starting magnetic structure 
     atomic species   magnetization
        Fe           0.312
        Na           0.000
        O            0.000
        P            0.000

     No symmetry found


                                    s                        frac. trans.

      isym =  1     identity                                     

 cryst.   s( 1) = (     1          0          0      )
                  (     0          1          0      )
                  (     0          0          1      )

 cart.    s( 1) = (  1.0000000  0.0000000  0.0000000 )
                  (  0.0000000  1.0000000  0.0000000 )
                  (  0.0000000  0.0000000  1.0000000 )


   Cartesian axes

     site n.     atom                  positions (alat units)
         1           Na  tau(   1) = (   0.5267802   0.0486678   0.2306179  )
         2           Fe  tau(   2) = (   0.2775047   0.4491175   0.4722469  )
         3           Fe  tau(   3) = (   0.2107693   0.1521034   0.2330718  )
         4           Fe  tau(   4) = (   0.7260421   0.1558894   0.0026585  )
         5           Fe  tau(   5) = (   0.7842062   0.4465015   0.2425857  )
         6           P   tau(   6) = (   0.1068463   0.4500708   0.2112516  )
         7           P   tau(   7) = (   0.3892678   0.1546558   0.4489717  )
         8           P   tau(   8) = (   0.8912156   0.1497696   0.2646649  )
         9           P   tau(   9) = (   0.6066986   0.4490318   0.0266571  )
        10           O   tau(  10) = (   0.1320852   0.4514188   0.3572250  )
        11           O   tau(  11) = (   0.3656991   0.1503323   0.1199057  )
        12           O   tau(  12) = (   0.8700849   0.1505995   0.1181827  )
        13           O   tau(  13) = (   0.6284592   0.4532632   0.3551993  )
        14           O   tau(  14) = (   0.4610830   0.4537819   0.0588090  )
        15           O   tau(  15) = (   0.0360888   0.1490430   0.2963752  )
        16           O   tau(  16) = (   0.5370311   0.1529193   0.4233820  )
        17           O   tau(  17) = (   0.9604852   0.4500227   0.1846212  )
        18           O   tau(  18) = (   0.1771916   0.5657067   0.1421832  )
        19           O   tau(  19) = (   0.3254695   0.0375896   0.3758395  )
        20           O   tau(  20) = (   0.8196289   0.2668028   0.3313272  )
        21           O   tau(  21) = (   0.6770689   0.3323103   0.0933780  )
        22           O   tau(  22) = (   0.8166332   0.0353533   0.3310229  )
        23           O   tau(  23) = (   0.6775470   0.5651375   0.0961036  )
        24           O   tau(  24) = (   0.1757850   0.3327433   0.1436120  )
        25           O   tau(  25) = (   0.3204004   0.2709460   0.3823371  )

   Crystallographic axes

     site n.     atom                  positions (cryst. coord.)
         1           Na  tau(   1) = (  0.5267802  0.0814401  0.4851278  )
         2           Fe  tau(   2) = (  0.2775047  0.7515480  0.9934188  )
         3           Fe  tau(   3) = (  0.2107693  0.2545281  0.4902898  )
         4           Fe  tau(   4) = (  0.7260421  0.2608635  0.0055925  )
         5           Fe  tau(   5) = (  0.7842062  0.7471703  0.5103033  )
         6           P   tau(   6) = (  0.1068463  0.7531433  0.4443889  )
         7           P   tau(   7) = (  0.3892678  0.2587992  0.9444570  )
         8           P   tau(   8) = (  0.8912156  0.2506227  0.5567492  )
         9           P   tau(   9) = (  0.6066986  0.7514046  0.0560759  )
        10           O   tau(  10) = (  0.1320852  0.7553990  0.7514585  )
        11           O   tau(  11) = (  0.3656991  0.2515643  0.2522336  )
        12           O   tau(  12) = (  0.8700849  0.2520114  0.2486091  )
        13           O   tau(  13) = (  0.6284592  0.7584853  0.7471974  )
        14           O   tau(  14) = (  0.4610830  0.7593534  0.1237106  )
        15           O   tau(  15) = (  0.0360888  0.2494067  0.6234549  )
        16           O   tau(  16) = (  0.5370311  0.2558933  0.8906265  )
        17           O   tau(  17) = (  0.9604852  0.7530627  0.3883692  )
        18           O   tau(  18) = (  0.1771916  0.9466470  0.2990967  )
        19           O   tau(  19) = (  0.3254695  0.0629019  0.7906161  )
        20           O   tau(  20) = (  0.8196289  0.4464647  0.6969800  )
        21           O   tau(  21) = (  0.6770689  0.5560841  0.1964299  )
        22           O   tau(  22) = (  0.8166332  0.0591597  0.6963398  )
        23           O   tau(  23) = (  0.6775470  0.9456945  0.2021637  )
        24           O   tau(  24) = (  0.1757850  0.5568087  0.3021023  )
        25           O   tau(  25) = (  0.3204004  0.4533978  0.8042845  )

     number of k points=   158  Marzari-Vanderbilt smearing, width (Ry)=  0.0073
                       cart. coord. in units 2pi/alat
        k(    1) = (   0.0000000   0.0000000   0.0000000), wk =   0.0031746
        k(    2) = (   0.0000000   0.0000000   0.2337334), wk =   0.0063492
        k(    3) = (   0.0000000   0.0000000   0.4674667), wk =   0.0063492
        k(    4) = (   0.0000000   0.0000000   0.7012001), wk =   0.0063492
        k(    5) = (   0.0000000   0.0000000   0.9349334), wk =   0.0063492
        k(    6) = (   0.0000000   0.2390555   0.0000000), wk =   0.0063492
        k(    7) = (   0.0000000   0.2390555   0.2337334), wk =   0.0063492
        k(    8) = (   0.0000000   0.2390555   0.4674667), wk =   0.0063492
        k(    9) = (   0.0000000   0.2390555   0.7012001), wk =   0.0063492
        k(   10) = (   0.0000000   0.2390555   0.9349334), wk =   0.0063492
        k(   11) = (   0.0000000   0.4781110   0.0000000), wk =   0.0063492
        k(   12) = (   0.0000000   0.4781110   0.2337334), wk =   0.0063492
        k(   13) = (   0.0000000   0.4781110   0.4674667), wk =   0.0063492
        k(   14) = (   0.0000000   0.4781110   0.7012001), wk =   0.0063492
        k(   15) = (   0.0000000   0.4781110   0.9349334), wk =   0.0063492
        k(   16) = (   0.0000000   0.7171664   0.0000000), wk =   0.0063492
        k(   17) = (   0.0000000   0.7171664   0.2337334), wk =   0.0063492
        k(   18) = (   0.0000000   0.7171664   0.4674667), wk =   0.0063492
        k(   19) = (   0.0000000   0.7171664   0.7012001), wk =   0.0063492
        k(   20) = (   0.0000000   0.7171664   0.9349334), wk =   0.0063492
        k(   21) = (   0.2000000   0.0000000   0.0000000), wk =   0.0063492
        k(   22) = (   0.2000000   0.0000000   0.2337334), wk =   0.0063492
        k(   23) = (   0.2000000   0.0000000   0.4674667), wk =   0.0063492
        k(   24) = (   0.2000000   0.0000000   0.7012001), wk =   0.0063492
        k(   25) = (   0.2000000   0.0000000   0.9349334), wk =   0.0063492
        k(   26) = (   0.2000000   0.2390555   0.0000000), wk =   0.0063492
        k(   27) = (   0.2000000   0.2390555   0.2337334), wk =   0.0063492
        k(   28) = (   0.2000000   0.2390555   0.4674667), wk =   0.0063492
        k(   29) = (   0.2000000   0.2390555   0.7012001), wk =   0.0063492
        k(   30) = (   0.2000000   0.2390555   0.9349334), wk =   0.0063492
        k(   31) = (   0.2000000   0.4781110   0.0000000), wk =   0.0063492
        k(   32) = (   0.2000000   0.4781110   0.2337334), wk =   0.0063492
        k(   33) = (   0.2000000   0.4781110   0.4674667), wk =   0.0063492
        k(   34) = (   0.2000000   0.4781110   0.7012001), wk =   0.0063492
        k(   35) = (   0.2000000   0.4781110   0.9349334), wk =   0.0063492
        k(   36) = (   0.2000000   0.7171664   0.0000000), wk =   0.0063492
        k(   37) = (   0.2000000   0.7171664   0.2337334), wk =   0.0063492
        k(   38) = (   0.2000000   0.7171664   0.4674667), wk =   0.0063492
        k(   39) = (   0.2000000   0.7171664   0.7012001), wk =   0.0063492
        k(   40) = (   0.2000000   0.7171664   0.9349334), wk =   0.0063492
        k(   41) = (   0.4000000   0.0000000   0.0000000), wk =   0.0063492
        k(   42) = (   0.4000000   0.0000000   0.2337334), wk =   0.0063492
        k(   43) = (   0.4000000   0.0000000   0.4674667), wk =   0.0063492
        k(   44) = (   0.4000000   0.0000000   0.7012001), wk =   0.0063492
        k(   45) = (   0.4000000   0.0000000   0.9349334), wk =   0.0063492
        k(   46) = (   0.4000000   0.2390555   0.0000000), wk =   0.0063492
        k(   47) = (   0.4000000   0.2390555   0.2337334), wk =   0.0063492
        k(   48) = (   0.4000000   0.2390555   0.4674667), wk =   0.0063492
        k(   49) = (   0.4000000   0.2390555   0.7012001), wk =   0.0063492
        k(   50) = (   0.4000000   0.2390555   0.9349334), wk =   0.0063492
        k(   51) = (   0.4000000   0.4781110   0.0000000), wk =   0.0063492
        k(   52) = (   0.4000000   0.4781110   0.2337334), wk =   0.0063492
        k(   53) = (   0.4000000   0.4781110   0.4674667), wk =   0.0063492
        k(   54) = (   0.4000000   0.4781110   0.7012001), wk =   0.0063492
        k(   55) = (   0.4000000   0.4781110   0.9349334), wk =   0.0063492
        k(   56) = (   0.4000000   0.7171664   0.0000000), wk =   0.0063492
        k(   57) = (   0.4000000   0.7171664   0.2337334), wk =   0.0063492
        k(   58) = (   0.4000000   0.7171664   0.4674667), wk =   0.0063492
        k(   59) = (   0.4000000   0.7171664   0.7012001), wk =   0.0063492
        k(   60) = (   0.4000000   0.7171664   0.9349334), wk =   0.0063492
        k(   61) = (   0.0000000  -0.2390555   0.2337334), wk =   0.0063492
        k(   62) = (   0.0000000  -0.2390555   0.4674667), wk =   0.0063492
        k(   63) = (   0.0000000  -0.2390555   0.7012001), wk =   0.0063492
        k(   64) = (   0.0000000  -0.2390555   0.9349334), wk =   0.0063492
        k(   65) = (   0.0000000  -0.4781110   0.2337334), wk =   0.0063492
        k(   66) = (   0.0000000  -0.4781110   0.4674667), wk =   0.0063492
        k(   67) = (   0.0000000  -0.4781110   0.7012001), wk =   0.0063492
        k(   68) = (   0.0000000  -0.4781110   0.9349334), wk =   0.0063492
        k(   69) = (   0.0000000  -0.7171664   0.2337334), wk =   0.0063492
        k(   70) = (   0.0000000  -0.7171664   0.4674667), wk =   0.0063492
        k(   71) = (   0.0000000  -0.7171664   0.7012001), wk =   0.0063492
        k(   72) = (   0.0000000  -0.7171664   0.9349334), wk =   0.0063492
        k(   73) = (  -0.2000000   0.0000000   0.2337334), wk =   0.0063492
        k(   74) = (  -0.2000000   0.0000000   0.4674667), wk =   0.0063492
        k(   75) = (  -0.2000000   0.0000000   0.7012001), wk =   0.0063492
        k(   76) = (  -0.2000000   0.0000000   0.9349334), wk =   0.0063492
        k(   77) = (  -0.2000000   0.2390555   0.0000000), wk =   0.0063492
        k(   78) = (  -0.2000000  -0.2390555   0.2337334), wk =   0.0063492
        k(   79) = (  -0.2000000   0.2390555  -0.2337334), wk =   0.0063492
        k(   80) = (   0.2000000  -0.2390555  -0.2337334), wk =   0.0063492
        k(   81) = (  -0.2000000  -0.2390555   0.4674667), wk =   0.0063492
        k(   82) = (  -0.2000000   0.2390555  -0.4674667), wk =   0.0063492
        k(   83) = (   0.2000000  -0.2390555  -0.4674667), wk =   0.0063492
        k(   84) = (  -0.2000000  -0.2390555   0.7012001), wk =   0.0063492
        k(   85) = (  -0.2000000   0.2390555  -0.7012001), wk =   0.0063492
        k(   86) = (   0.2000000  -0.2390555  -0.7012001), wk =   0.0063492
        k(   87) = (  -0.2000000  -0.2390555   0.9349334), wk =   0.0063492
        k(   88) = (  -0.2000000   0.2390555  -0.9349334), wk =   0.0063492
        k(   89) = (   0.2000000  -0.2390555  -0.9349334), wk =   0.0063492
        k(   90) = (  -0.2000000   0.4781110   0.0000000), wk =   0.0063492
        k(   91) = (  -0.2000000  -0.4781110   0.2337334), wk =   0.0063492
        k(   92) = (  -0.2000000   0.4781110  -0.2337334), wk =   0.0063492
        k(   93) = (   0.2000000  -0.4781110  -0.2337334), wk =   0.0063492
        k(   94) = (  -0.2000000  -0.4781110   0.4674667), wk =   0.0063492
        k(   95) = (  -0.2000000   0.4781110  -0.4674667), wk =   0.0063492
        k(   96) = (   0.2000000  -0.4781110  -0.4674667), wk =   0.0063492
        k(   97) = (  -0.2000000  -0.4781110   0.7012001), wk =   0.0063492
        k(   98) = (  -0.2000000   0.4781110  -0.7012001), wk =   0.0063492
        k(   99) = (   0.2000000  -0.4781110  -0.7012001), wk =   0.0063492
        k(  100) = (  -0.2000000  -0.4781110   0.9349334), wk =   0.0063492
        k(  101) = (  -0.2000000   0.4781110  -0.9349334), wk =   0.0063492
        k(  102) = (   0.2000000  -0.4781110  -0.9349334), wk =   0.0063492
        k(  103) = (  -0.2000000   0.7171664   0.0000000), wk =   0.0063492
        k(  104) = (  -0.2000000  -0.7171664   0.2337334), wk =   0.0063492
        k(  105) = (  -0.2000000   0.7171664  -0.2337334), wk =   0.0063492
        k(  106) = (   0.2000000  -0.7171664  -0.2337334), wk =   0.0063492
        k(  107) = (  -0.2000000  -0.7171664   0.4674667), wk =   0.0063492
        k(  108) = (  -0.2000000   0.7171664  -0.4674667), wk =   0.0063492
        k(  109) = (   0.2000000  -0.7171664  -0.4674667), wk =   0.0063492
        k(  110) = (  -0.2000000  -0.7171664   0.7012001), wk =   0.0063492
        k(  111) = (  -0.2000000   0.7171664  -0.7012001), wk =   0.0063492
        k(  112) = (   0.2000000  -0.7171664  -0.7012001), wk =   0.0063492
        k(  113) = (  -0.2000000  -0.7171664   0.9349334), wk =   0.0063492
        k(  114) = (  -0.2000000   0.7171664  -0.9349334), wk =   0.0063492
        k(  115) = (   0.2000000  -0.7171664  -0.9349334), wk =   0.0063492
        k(  116) = (  -0.4000000   0.0000000   0.2337334), wk =   0.0063492
        k(  117) = (  -0.4000000   0.0000000   0.4674667), wk =   0.0063492
        k(  118) = (  -0.4000000   0.0000000   0.7012001), wk =   0.0063492
        k(  119) = (  -0.4000000   0.0000000   0.9349334), wk =   0.0063492
        k(  120) = (  -0.4000000   0.2390555   0.0000000), wk =   0.0063492
        k(  121) = (  -0.4000000  -0.2390555   0.2337334), wk =   0.0063492
        k(  122) = (  -0.4000000   0.2390555  -0.2337334), wk =   0.0063492
        k(  123) = (   0.4000000  -0.2390555  -0.2337334), wk =   0.0063492
        k(  124) = (  -0.4000000  -0.2390555   0.4674667), wk =   0.0063492
        k(  125) = (  -0.4000000   0.2390555  -0.4674667), wk =   0.0063492
        k(  126) = (   0.4000000  -0.2390555  -0.4674667), wk =   0.0063492
        k(  127) = (  -0.4000000  -0.2390555   0.7012001), wk =   0.0063492
        k(  128) = (  -0.4000000   0.2390555  -0.7012001), wk =   0.0063492
        k(  129) = (   0.4000000  -0.2390555  -0.7012001), wk =   0.0063492
        k(  130) = (  -0.4000000  -0.2390555   0.9349334), wk =   0.0063492
        k(  131) = (  -0.4000000   0.2390555  -0.9349334), wk =   0.0063492
        k(  132) = (   0.4000000  -0.2390555  -0.9349334), wk =   0.0063492
        k(  133) = (  -0.4000000   0.4781110   0.0000000), wk =   0.0063492
        k(  134) = (  -0.4000000  -0.4781110   0.2337334), wk =   0.0063492
        k(  135) = (  -0.4000000   0.4781110  -0.2337334), wk =   0.0063492
        k(  136) = (   0.4000000  -0.4781110  -0.2337334), wk =   0.0063492
        k(  137) = (  -0.4000000  -0.4781110   0.4674667), wk =   0.0063492
        k(  138) = (  -0.4000000   0.4781110  -0.4674667), wk =   0.0063492
        k(  139) = (   0.4000000  -0.4781110  -0.4674667), wk =   0.0063492
        k(  140) = (  -0.4000000  -0.4781110   0.7012001), wk =   0.0063492
        k(  141) = (  -0.4000000   0.4781110  -0.7012001), wk =   0.0063492
        k(  142) = (   0.4000000  -0.4781110  -0.7012001), wk =   0.0063492
        k(  143) = (  -0.4000000  -0.4781110   0.9349334), wk =   0.0063492
        k(  144) = (  -0.4000000   0.4781110  -0.9349334), wk =   0.0063492
        k(  145) = (   0.4000000  -0.4781110  -0.9349334), wk =   0.0063492
        k(  146) = (  -0.4000000   0.7171664   0.0000000), wk =   0.0063492
        k(  147) = (  -0.4000000  -0.7171664   0.2337334), wk =   0.0063492
        k(  148) = (  -0.4000000   0.7171664  -0.2337334), wk =   0.0063492
        k(  149) = (   0.4000000  -0.7171664  -0.2337334), wk =   0.0063492
        k(  150) = (  -0.4000000  -0.7171664   0.4674667), wk =   0.0063492
        k(  151) = (  -0.4000000   0.7171664  -0.4674667), wk =   0.0063492
        k(  152) = (   0.4000000  -0.7171664  -0.4674667), wk =   0.0063492
        k(  153) = (  -0.4000000  -0.7171664   0.7012001), wk =   0.0063492
        k(  154) = (  -0.4000000   0.7171664  -0.7012001), wk =   0.0063492
        k(  155) = (   0.4000000  -0.7171664  -0.7012001), wk =   0.0063492
        k(  156) = (  -0.4000000  -0.7171664   0.9349334), wk =   0.0063492
        k(  157) = (  -0.4000000   0.7171664  -0.9349334), wk =   0.0063492
        k(  158) = (   0.4000000  -0.7171664  -0.9349334), wk =   0.0063492

                       cryst. coord.
        k(    1) = (   0.0000000   0.0000000   0.0000000), wk =   0.0031746
        k(    2) = (   0.0000000   0.0000000   0.1111111), wk =   0.0063492
        k(    3) = (   0.0000000   0.0000000   0.2222222), wk =   0.0063492
        k(    4) = (   0.0000000   0.0000000   0.3333333), wk =   0.0063492
        k(    5) = (   0.0000000   0.0000000   0.4444444), wk =   0.0063492
        k(    6) = (   0.0000000   0.1428571   0.0000000), wk =   0.0063492
        k(    7) = (   0.0000000   0.1428571   0.1111111), wk =   0.0063492
        k(    8) = (   0.0000000   0.1428571   0.2222222), wk =   0.0063492
        k(    9) = (   0.0000000   0.1428571   0.3333333), wk =   0.0063492
        k(   10) = (   0.0000000   0.1428571   0.4444444), wk =   0.0063492
        k(   11) = (   0.0000000   0.2857143   0.0000000), wk =   0.0063492
        k(   12) = (   0.0000000   0.2857143   0.1111111), wk =   0.0063492
        k(   13) = (   0.0000000   0.2857143   0.2222222), wk =   0.0063492
        k(   14) = (   0.0000000   0.2857143   0.3333333), wk =   0.0063492
        k(   15) = (   0.0000000   0.2857143   0.4444444), wk =   0.0063492
        k(   16) = (   0.0000000   0.4285714   0.0000000), wk =   0.0063492
        k(   17) = (   0.0000000   0.4285714   0.1111111), wk =   0.0063492
        k(   18) = (   0.0000000   0.4285714   0.2222222), wk =   0.0063492
        k(   19) = (   0.0000000   0.4285714   0.3333333), wk =   0.0063492
        k(   20) = (   0.0000000   0.4285714   0.4444444), wk =   0.0063492
        k(   21) = (   0.2000000   0.0000000   0.0000000), wk =   0.0063492
        k(   22) = (   0.2000000   0.0000000   0.1111111), wk =   0.0063492
        k(   23) = (   0.2000000   0.0000000   0.2222222), wk =   0.0063492
        k(   24) = (   0.2000000   0.0000000   0.3333333), wk =   0.0063492
        k(   25) = (   0.2000000   0.0000000   0.4444444), wk =   0.0063492
        k(   26) = (   0.2000000   0.1428571   0.0000000), wk =   0.0063492
        k(   27) = (   0.2000000   0.1428571   0.1111111), wk =   0.0063492
        k(   28) = (   0.2000000   0.1428571   0.2222222), wk =   0.0063492
        k(   29) = (   0.2000000   0.1428571   0.3333333), wk =   0.0063492
        k(   30) = (   0.2000000   0.1428571   0.4444444), wk =   0.0063492
        k(   31) = (   0.2000000   0.2857143   0.0000000), wk =   0.0063492
        k(   32) = (   0.2000000   0.2857143   0.1111111), wk =   0.0063492
        k(   33) = (   0.2000000   0.2857143   0.2222222), wk =   0.0063492
        k(   34) = (   0.2000000   0.2857143   0.3333333), wk =   0.0063492
        k(   35) = (   0.2000000   0.2857143   0.4444444), wk =   0.0063492
        k(   36) = (   0.2000000   0.4285714   0.0000000), wk =   0.0063492
        k(   37) = (   0.2000000   0.4285714   0.1111111), wk =   0.0063492
        k(   38) = (   0.2000000   0.4285714   0.2222222), wk =   0.0063492
        k(   39) = (   0.2000000   0.4285714   0.3333333), wk =   0.0063492
        k(   40) = (   0.2000000   0.4285714   0.4444444), wk =   0.0063492
        k(   41) = (   0.4000000   0.0000000   0.0000000), wk =   0.0063492
        k(   42) = (   0.4000000   0.0000000   0.1111111), wk =   0.0063492
        k(   43) = (   0.4000000   0.0000000   0.2222222), wk =   0.0063492
        k(   44) = (   0.4000000   0.0000000   0.3333333), wk =   0.0063492
        k(   45) = (   0.4000000   0.0000000   0.4444444), wk =   0.0063492
        k(   46) = (   0.4000000   0.1428571   0.0000000), wk =   0.0063492
        k(   47) = (   0.4000000   0.1428571   0.1111111), wk =   0.0063492
        k(   48) = (   0.4000000   0.1428571   0.2222222), wk =   0.0063492
        k(   49) = (   0.4000000   0.1428571   0.3333333), wk =   0.0063492
        k(   50) = (   0.4000000   0.1428571   0.4444444), wk =   0.0063492
        k(   51) = (   0.4000000   0.2857143   0.0000000), wk =   0.0063492
        k(   52) = (   0.4000000   0.2857143   0.1111111), wk =   0.0063492
        k(   53) = (   0.4000000   0.2857143   0.2222222), wk =   0.0063492
        k(   54) = (   0.4000000   0.2857143   0.3333333), wk =   0.0063492
        k(   55) = (   0.4000000   0.2857143   0.4444444), wk =   0.0063492
        k(   56) = (   0.4000000   0.4285714   0.0000000), wk =   0.0063492
        k(   57) = (   0.4000000   0.4285714   0.1111111), wk =   0.0063492
        k(   58) = (   0.4000000   0.4285714   0.2222222), wk =   0.0063492
        k(   59) = (   0.4000000   0.4285714   0.3333333), wk =   0.0063492
        k(   60) = (   0.4000000   0.4285714   0.4444444), wk =   0.0063492
        k(   61) = (   0.0000000  -0.1428571   0.1111111), wk =   0.0063492
        k(   62) = (   0.0000000  -0.1428571   0.2222222), wk =   0.0063492
        k(   63) = (   0.0000000  -0.1428571   0.3333333), wk =   0.0063492
        k(   64) = (   0.0000000  -0.1428571   0.4444444), wk =   0.0063492
        k(   65) = (   0.0000000  -0.2857143   0.1111111), wk =   0.0063492
        k(   66) = (   0.0000000  -0.2857143   0.2222222), wk =   0.0063492
        k(   67) = (   0.0000000  -0.2857143   0.3333333), wk =   0.0063492
        k(   68) = (   0.0000000  -0.2857143   0.4444444), wk =   0.0063492
        k(   69) = (   0.0000000  -0.4285714   0.1111111), wk =   0.0063492
        k(   70) = (   0.0000000  -0.4285714   0.2222222), wk =   0.0063492
        k(   71) = (   0.0000000  -0.4285714   0.3333333), wk =   0.0063492
        k(   72) = (   0.0000000  -0.4285714   0.4444444), wk =   0.0063492
        k(   73) = (  -0.2000000   0.0000000   0.1111111), wk =   0.0063492
        k(   74) = (  -0.2000000   0.0000000   0.2222222), wk =   0.0063492
        k(   75) = (  -0.2000000   0.0000000   0.3333333), wk =   0.0063492
        k(   76) = (  -0.2000000   0.0000000   0.4444444), wk =   0.0063492
        k(   77) = (  -0.2000000   0.1428571   0.0000000), wk =   0.0063492
        k(   78) = (  -0.2000000  -0.1428571   0.1111111), wk =   0.0063492
        k(   79) = (  -0.2000000   0.1428571  -0.1111111), wk =   0.0063492
        k(   80) = (   0.2000000  -0.1428571  -0.1111111), wk =   0.0063492
        k(   81) = (  -0.2000000  -0.1428571   0.2222222), wk =   0.0063492
        k(   82) = (  -0.2000000   0.1428571  -0.2222222), wk =   0.0063492
        k(   83) = (   0.2000000  -0.1428571  -0.2222222), wk =   0.0063492
        k(   84) = (  -0.2000000  -0.1428571   0.3333333), wk =   0.0063492
        k(   85) = (  -0.2000000   0.1428571  -0.3333333), wk =   0.0063492
        k(   86) = (   0.2000000  -0.1428571  -0.3333333), wk =   0.0063492
        k(   87) = (  -0.2000000  -0.1428571   0.4444444), wk =   0.0063492
        k(   88) = (  -0.2000000   0.1428571  -0.4444444), wk =   0.0063492
        k(   89) = (   0.2000000  -0.1428571  -0.4444444), wk =   0.0063492
        k(   90) = (  -0.2000000   0.2857143   0.0000000), wk =   0.0063492
        k(   91) = (  -0.2000000  -0.2857143   0.1111111), wk =   0.0063492
        k(   92) = (  -0.2000000   0.2857143  -0.1111111), wk =   0.0063492
        k(   93) = (   0.2000000  -0.2857143  -0.1111111), wk =   0.0063492
        k(   94) = (  -0.2000000  -0.2857143   0.2222222), wk =   0.0063492
        k(   95) = (  -0.2000000   0.2857143  -0.2222222), wk =   0.0063492
        k(   96) = (   0.2000000  -0.2857143  -0.2222222), wk =   0.0063492
        k(   97) = (  -0.2000000  -0.2857143   0.3333333), wk =   0.0063492
        k(   98) = (  -0.2000000   0.2857143  -0.3333333), wk =   0.0063492
        k(   99) = (   0.2000000  -0.2857143  -0.3333333), wk =   0.0063492
        k(  100) = (  -0.2000000  -0.2857143   0.4444444), wk =   0.0063492
        k(  101) = (  -0.2000000   0.2857143  -0.4444444), wk =   0.0063492
        k(  102) = (   0.2000000  -0.2857143  -0.4444444), wk =   0.0063492
        k(  103) = (  -0.2000000   0.4285714   0.0000000), wk =   0.0063492
        k(  104) = (  -0.2000000  -0.4285714   0.1111111), wk =   0.0063492
        k(  105) = (  -0.2000000   0.4285714  -0.1111111), wk =   0.0063492
        k(  106) = (   0.2000000  -0.4285714  -0.1111111), wk =   0.0063492
        k(  107) = (  -0.2000000  -0.4285714   0.2222222), wk =   0.0063492
        k(  108) = (  -0.2000000   0.4285714  -0.2222222), wk =   0.0063492
        k(  109) = (   0.2000000  -0.4285714  -0.2222222), wk =   0.0063492
        k(  110) = (  -0.2000000  -0.4285714   0.3333333), wk =   0.0063492
        k(  111) = (  -0.2000000   0.4285714  -0.3333333), wk =   0.0063492
        k(  112) = (   0.2000000  -0.4285714  -0.3333333), wk =   0.0063492
        k(  113) = (  -0.2000000  -0.4285714   0.4444444), wk =   0.0063492
        k(  114) = (  -0.2000000   0.4285714  -0.4444444), wk =   0.0063492
        k(  115) = (   0.2000000  -0.4285714  -0.4444444), wk =   0.0063492
        k(  116) = (  -0.4000000   0.0000000   0.1111111), wk =   0.0063492
        k(  117) = (  -0.4000000   0.0000000   0.2222222), wk =   0.0063492
        k(  118) = (  -0.4000000   0.0000000   0.3333333), wk =   0.0063492
        k(  119) = (  -0.4000000   0.0000000   0.4444444), wk =   0.0063492
        k(  120) = (  -0.4000000   0.1428571   0.0000000), wk =   0.0063492
        k(  121) = (  -0.4000000  -0.1428571   0.1111111), wk =   0.0063492
        k(  122) = (  -0.4000000   0.1428571  -0.1111111), wk =   0.0063492
        k(  123) = (   0.4000000  -0.1428571  -0.1111111), wk =   0.0063492
        k(  124) = (  -0.4000000  -0.1428571   0.2222222), wk =   0.0063492
        k(  125) = (  -0.4000000   0.1428571  -0.2222222), wk =   0.0063492
        k(  126) = (   0.4000000  -0.1428571  -0.2222222), wk =   0.0063492
        k(  127) = (  -0.4000000  -0.1428571   0.3333333), wk =   0.0063492
        k(  128) = (  -0.4000000   0.1428571  -0.3333333), wk =   0.0063492
        k(  129) = (   0.4000000  -0.1428571  -0.3333333), wk =   0.0063492
        k(  130) = (  -0.4000000  -0.1428571   0.4444444), wk =   0.0063492
        k(  131) = (  -0.4000000   0.1428571  -0.4444444), wk =   0.0063492
        k(  132) = (   0.4000000  -0.1428571  -0.4444444), wk =   0.0063492
        k(  133) = (  -0.4000000   0.2857143   0.0000000), wk =   0.0063492
        k(  134) = (  -0.4000000  -0.2857143   0.1111111), wk =   0.0063492
        k(  135) = (  -0.4000000   0.2857143  -0.1111111), wk =   0.0063492
        k(  136) = (   0.4000000  -0.2857143  -0.1111111), wk =   0.0063492
        k(  137) = (  -0.4000000  -0.2857143   0.2222222), wk =   0.0063492
        k(  138) = (  -0.4000000   0.2857143  -0.2222222), wk =   0.0063492
        k(  139) = (   0.4000000  -0.2857143  -0.2222222), wk =   0.0063492
        k(  140) = (  -0.4000000  -0.2857143   0.3333333), wk =   0.0063492
        k(  141) = (  -0.4000000   0.2857143  -0.3333333), wk =   0.0063492
        k(  142) = (   0.4000000  -0.2857143  -0.3333333), wk =   0.0063492
        k(  143) = (  -0.4000000  -0.2857143   0.4444444), wk =   0.0063492
        k(  144) = (  -0.4000000   0.2857143  -0.4444444), wk =   0.0063492
        k(  145) = (   0.4000000  -0.2857143  -0.4444444), wk =   0.0063492
        k(  146) = (  -0.4000000   0.4285714   0.0000000), wk =   0.0063492
        k(  147) = (  -0.4000000  -0.4285714   0.1111111), wk =   0.0063492
        k(  148) = (  -0.4000000   0.4285714  -0.1111111), wk =   0.0063492
        k(  149) = (   0.4000000  -0.4285714  -0.1111111), wk =   0.0063492
        k(  150) = (  -0.4000000  -0.4285714   0.2222222), wk =   0.0063492
        k(  151) = (  -0.4000000   0.4285714  -0.2222222), wk =   0.0063492
        k(  152) = (   0.4000000  -0.4285714  -0.2222222), wk =   0.0063492
        k(  153) = (  -0.4000000  -0.4285714   0.3333333), wk =   0.0063492
        k(  154) = (  -0.4000000   0.4285714  -0.3333333), wk =   0.0063492
        k(  155) = (   0.4000000  -0.4285714  -0.3333333), wk =   0.0063492
        k(  156) = (  -0.4000000  -0.4285714   0.4444444), wk =   0.0063492
        k(  157) = (  -0.4000000   0.4285714  -0.4444444), wk =   0.0063492
        k(  158) = (   0.4000000  -0.4285714  -0.4444444), wk =   0.0063492

     Dense  grid:  1294859 G-vectors     FFT dimensions: ( 216, 125, 100)

     Smooth grid:   291873 G-vectors     FFT dimensions: ( 125,  75,  60)

     Dynamical RAM for                 wfc:       2.64 MB

     Dynamical RAM for     wfc (w. buffer):     838.16 MB

     Dynamical RAM for           str. fact:       3.29 MB

     Dynamical RAM for           local pot:       0.00 MB

     Dynamical RAM for          nlocal pot:       6.49 MB

     Dynamical RAM for                qrad:      10.54 MB

     Dynamical RAM for          rho,v,vnew:      11.12 MB

     Dynamical RAM for               rhoin:       3.71 MB

     Dynamical RAM for            rho*nmix:      26.34 MB

     Dynamical RAM for           G-vectors:       3.18 MB

     Dynamical RAM for          h,s,v(r/c):       2.38 MB

     Dynamical RAM for          <psi|beta>:       0.49 MB

     Dynamical RAM for                 psi:       5.29 MB

     Dynamical RAM for                hpsi:       5.29 MB

     Dynamical RAM for                spsi:       5.29 MB

     Dynamical RAM for      wfcinit/wfcrot:       6.79 MB

     Dynamical RAM for           addusdens:     167.12 MB

     Dynamical RAM for          addusforce:     191.95 MB

     Dynamical RAM for         addusstress:     166.71 MB

     Estimated static dynamical RAM per process >     913.14 MB

     Estimated max dynamical RAM per process >       1.08 GB

     Estimated total dynamical RAM >      25.90 GB

     Check: negative core charge=   -0.000003
     Generating pointlists ...
     new r_m :   0.0762 (alat units)  1.4984 (a.u.) for type    1
     new r_m :   0.0898 (alat units)  1.7662 (a.u.) for type    2
     new r_m :   0.0611 (alat units)  1.2006 (a.u.) for type    3
     new r_m :   0.0611 (alat units)  1.2006 (a.u.) for type    4

     Initial potential from superposition of free atoms

     starting charge  188.99132, renormalised to  189.00000
     Starting wfcs are  137 randomized atomic wfcs
     Checking if some PAW data can be deallocated... 
       PAW data deallocated on   20 nodes for type:  1
       PAW data deallocated on    8 nodes for type:  3

     total cpu time spent up to now is      202.0 secs

     Self-consistent Calculation

     iteration #  1     ecut=   100.00 Ry     beta= 0.40
     Davidson diagonalization with overlap
     ethr =  1.00E-02,  avg # of iterations =  3.0

     negative rho (up, down):  0.000E+00 9.055E-05

     total cpu time spent up to now is      822.3 secs

     total energy              =   -2123.96906175 Ry
     estimated scf accuracy    <       6.86156001 Ry

     total magnetization       =    19.00 Bohr mag/cell
     absolute magnetization    =    19.00 Bohr mag/cell

     iteration #  2     ecut=   100.00 Ry     beta= 0.40
     Davidson diagonalization with overlap
     ethr =  3.63E-03,  avg # of iterations =  2.0

     negative rho (up, down):  0.000E+00 2.847E-05

     total cpu time spent up to now is     1382.5 secs

     total energy              =   -2121.09506197 Ry
     estimated scf accuracy    <      37.92502694 Ry

     total magnetization       =     8.70 Bohr mag/cell
     absolute magnetization    =    10.17 Bohr mag/cell

     iteration #  3     ecut=   100.00 Ry     beta= 0.40
     Davidson diagonalization with overlap
     ethr =  3.63E-03,  avg # of iterations =  3.3

     negative rho (up, down):  0.000E+00 1.321E-05

     total cpu time spent up to now is     1896.0 secs

     total energy              =   -2123.16676781 Ry
     estimated scf accuracy    <      78.98523186 Ry

     total magnetization       =     1.00 Bohr mag/cell
     absolute magnetization    =     5.14 Bohr mag/cell

     iteration #  4     ecut=   100.00 Ry     beta= 0.40
     Davidson diagonalization with overlap
     ethr =  3.63E-03,  avg # of iterations =  1.5

     negative rho (up, down):  0.000E+00 3.902E-05

     total cpu time spent up to now is     2338.5 secs

     total energy              =   -2125.29670177 Ry
     estimated scf accuracy    <       8.55501342 Ry

     total magnetization       =    15.11 Bohr mag/cell
     absolute magnetization    =    15.24 Bohr mag/cell

     iteration #  5     ecut=   100.00 Ry     beta= 0.40
     Davidson diagonalization with overlap
     ethr =  3.63E-03,  avg # of iterations =  2.0

     negative rho (up, down):  0.000E+00 9.075E-05

     total cpu time spent up to now is     2818.8 secs

     total energy              =   -2125.56119259 Ry
     estimated scf accuracy    <      14.06268929 Ry

     total magnetization       =    13.83 Bohr mag/cell
     absolute magnetization    =    14.05 Bohr mag/cell

     iteration #  6     ecut=   100.00 Ry     beta= 0.40
     Davidson diagonalization with overlap
     ethr =  3.63E-03,  avg # of iterations =  1.4

     negative rho (up, down):  0.000E+00 2.311E-04

     total cpu time spent up to now is     3240.8 secs

     total energy              =   -2126.10579604 Ry
     estimated scf accuracy    <       0.53193689 Ry

     total magnetization       =    19.00 Bohr mag/cell
     absolute magnetization    =    19.00 Bohr mag/cell

     iteration #  7     ecut=   100.00 Ry     beta= 0.40
     Davidson diagonalization with overlap
     ethr =  2.81E-04,  avg # of iterations =  3.9

     negative rho (up, down):  0.000E+00 2.679E-04

     total cpu time spent up to now is     3759.0 secs

     total energy              =   -2126.09624199 Ry
     estimated scf accuracy    <       0.80209025 Ry

     total magnetization       =    19.00 Bohr mag/cell
     absolute magnetization    =    19.00 Bohr mag/cell

     iteration #  8     ecut=   100.00 Ry     beta= 0.40
     Davidson diagonalization with overlap
     ethr =  2.81E-04,  avg # of iterations =  1.0

     negative rho (up, down):  0.000E+00 6.155E-04

     total cpu time spent up to now is     4188.3 secs

     total energy              =   -2126.12266382 Ry
     estimated scf accuracy    <       0.20388362 Ry

     total magnetization       =    19.00 Bohr mag/cell
     absolute magnetization    =    19.00 Bohr mag/cell

     iteration #  9     ecut=   100.00 Ry     beta= 0.40
     Davidson diagonalization with overlap
     c_bands:  1 eigenvalues not converged
     c_bands:  1 eigenvalues not converged
     c_bands:  2 eigenvalues not converged
     c_bands:  1 eigenvalues not converged
     ethr =  1.08E-04,  avg # of iterations = 10.2

     negative rho (up, down):  0.000E+00 7.421E-04

     total cpu time spent up to now is     5093.9 secs

     total energy              =   -2126.13574236 Ry
     estimated scf accuracy    <       0.05861837 Ry

     total magnetization       =    19.00 Bohr mag/cell
     absolute magnetization    =    19.01 Bohr mag/cell

     iteration # 10     ecut=   100.00 Ry     beta= 0.40
     Davidson diagonalization with overlap
     c_bands:  1 eigenvalues not converged
     c_bands:  1 eigenvalues not converged
     c_bands:  1 eigenvalues not converged
     c_bands:  1 eigenvalues not converged
     c_bands:  1 eigenvalues not converged
     c_bands:  1 eigenvalues not converged
     c_bands:  1 eigenvalues not converged
     c_bands:  1 eigenvalues not converged
     ethr =  3.10E-05,  avg # of iterations =  9.9

     negative rho (up, down):  0.000E+00 9.157E-04

     total cpu time spent up to now is     5826.3 secs

     total energy              =   -2126.13895604 Ry
     estimated scf accuracy    <       0.01434833 Ry

     total magnetization       =    19.00 Bohr mag/cell
     absolute magnetization    =    19.02 Bohr mag/cell

     iteration # 11     ecut=   100.00 Ry     beta= 0.40
     Davidson diagonalization with overlap
     c_bands:  1 eigenvalues not converged
     c_bands:  1 eigenvalues not converged
     c_bands:  1 eigenvalues not converged
     c_bands:  1 eigenvalues not converged
     c_bands:  1 eigenvalues not converged
     c_bands:  1 eigenvalues not converged
     c_bands:  1 eigenvalues not converged
     c_bands:  1 eigenvalues not converged
     c_bands:  1 eigenvalues not converged
     c_bands:  1 eigenvalues not converged
     c_bands:  1 eigenvalues not converged
     c_bands:  1 eigenvalues not converged
     c_bands:  1 eigenvalues not converged
     ethr =  7.59E-06,  avg # of iterations = 10.8

     negative rho (up, down):  0.000E+00 9.752E-04

     total cpu time spent up to now is     6833.4 secs

     total energy              =   -2126.14215460 Ry
     estimated scf accuracy    <       0.02000293 Ry

     total magnetization       =    19.00 Bohr mag/cell
     absolute magnetization    =    19.03 Bohr mag/cell

     iteration # 12     ecut=   100.00 Ry     beta= 0.40
     Davidson diagonalization with overlap
     ethr =  7.59E-06,  avg # of iterations =  1.1

     negative rho (up, down):  0.000E+00 9.548E-04

     total cpu time spent up to now is     7707.7 secs

     total energy              =   -2126.14263220 Ry
     estimated scf accuracy    <       0.00958221 Ry

     total magnetization       =    19.00 Bohr mag/cell
     absolute magnetization    =    19.04 Bohr mag/cell

     iteration # 13     ecut=   100.00 Ry     beta= 0.40
     Davidson diagonalization with overlap
     ethr =  5.07E-06,  avg # of iterations =  1.0

     negative rho (up, down):  0.000E+00 9.590E-04

     total cpu time spent up to now is     8104.3 secs

     total energy              =   -2126.14313806 Ry
     estimated scf accuracy    <       0.00406450 Ry

     total magnetization       =    19.00 Bohr mag/cell
     absolute magnetization    =    19.04 Bohr mag/cell

     iteration # 14     ecut=   100.00 Ry     beta= 0.40
     Davidson diagonalization with overlap
     c_bands:  1 eigenvalues not converged
     c_bands:  1 eigenvalues not converged
     c_bands:  1 eigenvalues not converged
     c_bands:  1 eigenvalues not converged
     ethr =  2.15E-06,  avg # of iterations =  2.2

     negative rho (up, down):  0.000E+00 9.509E-04

     total cpu time spent up to now is     8558.9 secs

     total energy              =   -2126.14333240 Ry
     estimated scf accuracy    <       0.00038340 Ry

     total magnetization       =    19.00 Bohr mag/cell
     absolute magnetization    =    19.04 Bohr mag/cell

     iteration # 15     ecut=   100.00 Ry     beta= 0.40
     Davidson diagonalization with overlap
     c_bands:  1 eigenvalues not converged
     c_bands:  1 eigenvalues not converged
     ethr =  2.03E-07,  avg # of iterations =  5.3

     negative rho (up, down):  0.000E+00 9.447E-04

     total cpu time spent up to now is     9436.0 secs

     total energy              =   -2126.14348618 Ry
     estimated scf accuracy    <       0.00086197 Ry

     total magnetization       =    19.00 Bohr mag/cell
     absolute magnetization    =    19.05 Bohr mag/cell

     iteration # 16     ecut=   100.00 Ry     beta= 0.40
     Davidson diagonalization with overlap
     ethr =  2.03E-07,  avg # of iterations =  1.1

     negative rho (up, down):  0.000E+00 9.410E-04

     total cpu time spent up to now is     9855.4 secs

     total energy              =   -2126.14350373 Ry
     estimated scf accuracy    <       0.00027209 Ry

     total magnetization       =    19.00 Bohr mag/cell
     absolute magnetization    =    19.05 Bohr mag/cell

     iteration # 17     ecut=   100.00 Ry     beta= 0.40
     Davidson diagonalization with overlap
     ethr =  1.44E-07,  avg # of iterations =  1.0

     negative rho (up, down):  0.000E+00 9.385E-04

     total cpu time spent up to now is    10253.5 secs

     total energy              =   -2126.14352561 Ry
     estimated scf accuracy    <       0.00022731 Ry

     total magnetization       =    19.00 Bohr mag/cell
     absolute magnetization    =    19.05 Bohr mag/cell

     iteration # 18     ecut=   100.00 Ry     beta= 0.40
     Davidson diagonalization with overlap
     ethr =  1.20E-07,  avg # of iterations =  1.0

     negative rho (up, down):  0.000E+00 9.362E-04

     total cpu time spent up to now is    10650.0 secs

     total energy              =   -2126.14352920 Ry
     estimated scf accuracy    <       0.00010416 Ry

     total magnetization       =    19.00 Bohr mag/cell
     absolute magnetization    =    19.05 Bohr mag/cell

     iteration # 19     ecut=   100.00 Ry     beta= 0.40
     Davidson diagonalization with overlap
     ethr =  5.51E-08,  avg # of iterations =  1.0

     negative rho (up, down):  0.000E+00 9.359E-04

     total cpu time spent up to now is    11049.1 secs

     total energy              =   -2126.14353254 Ry
     estimated scf accuracy    <       0.00000581 Ry

     total magnetization       =    19.00 Bohr mag/cell
     absolute magnetization    =    19.05 Bohr mag/cell

     iteration # 20     ecut=   100.00 Ry     beta= 0.40
     Davidson diagonalization with overlap
     ethr =  3.07E-09,  avg # of iterations =  3.0

     negative rho (up, down):  0.000E+00 9.362E-04

     total cpu time spent up to now is    11589.9 secs

     total energy              =   -2126.14353383 Ry
     estimated scf accuracy    <       0.00000527 Ry

     total magnetization       =    19.00 Bohr mag/cell
     absolute magnetization    =    19.05 Bohr mag/cell

     iteration # 21     ecut=   100.00 Ry     beta= 0.40
     Davidson diagonalization with overlap
     ethr =  2.79E-09,  avg # of iterations =  2.0

     negative rho (up, down):  0.000E+00 9.364E-04

     total cpu time spent up to now is    12070.9 secs

     total energy              =   -2126.14353442 Ry
     estimated scf accuracy    <       0.00000285 Ry

     total magnetization       =    19.00 Bohr mag/cell
     absolute magnetization    =    19.05 Bohr mag/cell

     iteration # 22     ecut=   100.00 Ry     beta= 0.40
     Davidson diagonalization with overlap
     ethr =  1.51E-09,  avg # of iterations =  1.4

     negative rho (up, down):  0.000E+00 9.369E-04

     total cpu time spent up to now is    12495.8 secs

     total energy              =   -2126.14353463 Ry
     estimated scf accuracy    <       0.00000149 Ry

     total magnetization       =    19.00 Bohr mag/cell
     absolute magnetization    =    19.05 Bohr mag/cell

     iteration # 23     ecut=   100.00 Ry     beta= 0.40
     Davidson diagonalization with overlap
     ethr =  7.87E-10,  avg # of iterations =  1.8

     negative rho (up, down):  0.000E+00 9.369E-04

     total cpu time spent up to now is    13166.9 secs

     total energy              =   -2126.14353483 Ry
     estimated scf accuracy    <       0.00000046 Ry

     total magnetization       =    19.00 Bohr mag/cell
     absolute magnetization    =    19.05 Bohr mag/cell

     iteration # 24     ecut=   100.00 Ry     beta= 0.40
     Davidson diagonalization with overlap
     ethr =  2.42E-10,  avg # of iterations =  3.5

     negative rho (up, down):  0.000E+00 9.370E-04

     total cpu time spent up to now is    13763.7 secs

     total energy              =   -2126.14353493 Ry
     estimated scf accuracy    <       0.00000006 Ry

     total magnetization       =    19.00 Bohr mag/cell
     absolute magnetization    =    19.05 Bohr mag/cell

     iteration # 25     ecut=   100.00 Ry     beta= 0.40
     Davidson diagonalization with overlap
     ethr =  3.34E-11,  avg # of iterations =  3.3

     negative rho (up, down):  0.000E+00 9.371E-04

     total cpu time spent up to now is    14320.7 secs

     total energy              =   -2126.14353495 Ry
     estimated scf accuracy    <       0.00000002 Ry

     total magnetization       =    19.00 Bohr mag/cell
     absolute magnetization    =    19.05 Bohr mag/cell

     iteration # 26     ecut=   100.00 Ry     beta= 0.40
     Davidson diagonalization with overlap
     ethr =  9.98E-12,  avg # of iterations =  2.4

     negative rho (up, down):  0.000E+00 9.370E-04

     total cpu time spent up to now is    14820.2 secs

     total energy              =   -2126.14353495 Ry
     estimated scf accuracy    <          5.5E-09 Ry

     total magnetization       =    19.00 Bohr mag/cell
     absolute magnetization    =    19.05 Bohr mag/cell

     iteration # 27     ecut=   100.00 Ry     beta= 0.40
     Davidson diagonalization with overlap
     ethr =  2.92E-12,  avg # of iterations =  2.7

     negative rho (up, down):  0.000E+00 9.370E-04

     total cpu time spent up to now is    15429.3 secs

     total energy              =   -2126.14353496 Ry
     estimated scf accuracy    <          7.6E-09 Ry

     total magnetization       =    19.00 Bohr mag/cell
     absolute magnetization    =    19.05 Bohr mag/cell

     iteration # 28     ecut=   100.00 Ry     beta= 0.40
     Davidson diagonalization with overlap
     ethr =  2.92E-12,  avg # of iterations =  1.1

     negative rho (up, down):  0.000E+00 9.370E-04

     total cpu time spent up to now is    15902.4 secs

     total energy              =   -2126.14353496 Ry
     estimated scf accuracy    <       0.00000001 Ry

     total magnetization       =    19.00 Bohr mag/cell
     absolute magnetization    =    19.05 Bohr mag/cell

     iteration # 29     ecut=   100.00 Ry     beta= 0.40
     Davidson diagonalization with overlap
     ethr =  2.92E-12,  avg # of iterations =  1.0

     negative rho (up, down):  0.000E+00 9.370E-04

     total cpu time spent up to now is    16302.6 secs

     total energy              =   -2126.14353496 Ry
     estimated scf accuracy    <          2.6E-09 Ry

     total magnetization       =    19.00 Bohr mag/cell
     absolute magnetization    =    19.05 Bohr mag/cell

     iteration # 30     ecut=   100.00 Ry     beta= 0.40
     Davidson diagonalization with overlap
     ethr =  1.39E-12,  avg # of iterations =  1.1

     negative rho (up, down):  0.000E+00 9.369E-04

     total cpu time spent up to now is    16841.9 secs

     total energy              =   -2126.14353496 Ry
     estimated scf accuracy    <          5.9E-10 Ry

     total magnetization       =    19.00 Bohr mag/cell
     absolute magnetization    =    19.05 Bohr mag/cell

     iteration # 31     ecut=   100.00 Ry     beta= 0.40
     Davidson diagonalization with overlap
     ethr =  3.12E-13,  avg # of iterations =  2.9

     negative rho (up, down):  0.000E+00 9.370E-04

     total cpu time spent up to now is    17351.8 secs

     total energy              =   -2126.14353496 Ry
     estimated scf accuracy    <          3.2E-10 Ry

     total magnetization       =    19.00 Bohr mag/cell
     absolute magnetization    =    19.05 Bohr mag/cell

     iteration # 32     ecut=   100.00 Ry     beta= 0.40
     Davidson diagonalization with overlap
     ethr =  1.67E-13,  avg # of iterations =  1.9

     negative rho (up, down):  0.000E+00 9.370E-04

     Magnetic moment per site:
     atom:    1    charge:    7.9204    magn:    0.0006    constr:    0.0000
     atom:    2    charge:   12.8597    magn:    3.6613    constr:    0.0000
     atom:    3    charge:   12.8662    magn:    3.6432    constr:    0.0000
     atom:    4    charge:   12.8784    magn:    3.6189    constr:    0.0000
     atom:    5    charge:   12.8672    magn:    3.6436    constr:    0.0000
     atom:    6    charge:    0.8514    magn:    0.0108    constr:    0.0000
     atom:    7    charge:    0.8545    magn:    0.0085    constr:    0.0000
     atom:    8    charge:    0.8528    magn:    0.0111    constr:    0.0000
     atom:    9    charge:    0.8502    magn:    0.0086    constr:    0.0000
     atom:   10    charge:    4.2717    magn:    0.1360    constr:    0.0000
     atom:   11    charge:    4.2836    magn:    0.0854    constr:    0.0000
     atom:   12    charge:    4.2735    magn:    0.1318    constr:    0.0000
     atom:   13    charge:    4.2699    magn:    0.0935    constr:    0.0000
     atom:   14    charge:    4.2601    magn:    0.1007    constr:    0.0000
     atom:   15    charge:    4.2684    magn:    0.1338    constr:    0.0000
     atom:   16    charge:    4.2684    magn:    0.0859    constr:    0.0000
     atom:   17    charge:    4.2663    magn:    0.1406    constr:    0.0000
     atom:   18    charge:    4.2433    magn:    0.1484    constr:    0.0000
     atom:   19    charge:    4.2435    magn:    0.1239    constr:    0.0000
     atom:   20    charge:    4.2485    magn:    0.1538    constr:    0.0000
     atom:   21    charge:    4.2465    magn:    0.1356    constr:    0.0000
     atom:   22    charge:    4.2461    magn:    0.1420    constr:    0.0000
     atom:   23    charge:    4.2513    magn:    0.1195    constr:    0.0000
     atom:   24    charge:    4.2448    magn:    0.1533    constr:    0.0000
     atom:   25    charge:    4.2499    magn:    0.1325    constr:    0.0000

     total cpu time spent up to now is    17818.5 secs

     End of self-consistent calculation

 ------ SPIN UP ------------


          k = 0.0000 0.0000 0.0000 ( 36463 PWs)   bands (ev):

   -85.2395 -85.1732 -85.1702 -85.0858 -51.3458 -51.3442 -51.3229 -51.2818
   -51.2010 -51.1343 -51.0951 -51.0791 -51.0699 -51.0670 -51.0504 -50.9139
   -44.8170 -16.8625 -16.8105 -16.7831 -16.2074 -16.0049 -15.9032 -15.7806
   -13.7849 -13.7543 -13.6772 -13.6084 -13.5257 -13.5024 -13.4711 -13.4593
   -13.4268 -13.3827 -13.2917 -13.2309  -4.1381  -3.6454  -3.5824  -3.1688
    -2.2769  -1.9309  -1.8484  -1.7087  -1.5219  -1.3821  -1.3090  -1.2674
    -1.1186  -0.9811  -0.7342  -0.4614  -0.3183  -0.3173   0.1987   0.2764
     0.3252   0.4133   0.5651   0.6847   0.7555   0.8171   0.9264   1.0192
     1.0966   1.2956   1.3311   1.4093   1.5939   1.6033   1.6715   1.7080
     1.8297   2.0164   2.1279   2.1604   2.2118   2.2794   2.3438   2.4749
     2.5477   2.6365   2.7057   2.8171   2.8391   2.9811   3.0738   3.1357
     3.2242   3.3124   3.3582   3.3803   3.5035   3.6631   3.6768   3.8482
     3.9036   4.0622   4.1250   4.1305   4.3684   4.4717   4.7414   4.8326
     9.0520  11.0878  11.5672  11.9174  12.1085  12.7715  13.1048  13.3129
    13.4615  13.5894

     occupation numbers 
     1.0000   1.0000   1.0000   1.0000   1.0000   1.0000   1.0000   1.0000
     1.0000   1.0000   1.0000   1.0000   1.0000   1.0000   1.0000   1.0000
     1.0000   1.0000   1.0000   1.0000   1.0000   1.0000   1.0000   1.0000
     1.0000   1.0000   1.0000   1.0000   1.0000   1.0000   1.0000   1.0000
     1.0000   1.0000   1.0000   1.0000   1.0000   1.0000   1.0000   1.0000
     1.0000   1.0000   1.0000   1.0000   1.0000   1.0000   1.0000   1.0000
     1.0000   1.0000   1.0000   1.0000   1.0000   1.0000   1.0000   1.0000
     1.0000   1.0000   1.0000   1.0000   1.0000   1.0000   1.0000   1.0000
     1.0000   1.0000   1.0000   1.0000   1.0000   1.0000   1.0000   1.0000
     1.0000   1.0000   1.0000   1.0000   1.0000   1.0000   1.0000   1.0000
     1.0000   1.0000   1.0000   1.0000   1.0000   1.0000   1.0000   1.0000
     1.0000   1.0000   1.0000   1.0000   1.0000   1.0000   1.0000   1.0000
     1.0000   1.0000   1.0000   1.0000   1.0000   1.0000   1.0000   1.0000
     0.0000   0.0000   0.0000   0.0000   0.0000   0.0000   0.0000   0.0000
     0.0000   0.0000

          k = 0.0000 0.0000 0.2337 ( 36493 PWs)   bands (ev):

   -85.2395 -85.1732 -85.1702 -85.0858 -51.3458 -51.3442 -51.3229 -51.2818
   -51.2010 -51.1343 -51.0951 -51.0791 -51.0699 -51.0670 -51.0504 -50.9139
   -44.8169 -16.8631 -16.8102 -16.7865 -16.1880 -15.9987 -15.8969 -15.7804
   -13.7954 -13.7610 -13.6908 -13.6128 -13.5279 -13.5070 -13.4731 -13.4570
   -13.4226 -13.3881 -13.2967 -13.2353  -4.1147  -3.6400  -3.5792  -3.1801
    -2.2297  -1.9030  -1.8490  -1.6931  -1.5165  -1.4095  -1.3104  -1.2025
    -1.1086  -0.9475  -0.7803  -0.4375  -0.3598  -0.2996   0.2112   0.2828
     0.3300   0.4507   0.5562   0.6914   0.7502   0.7913   0.9047   1.0424
     1.0899   1.2909   1.3160   1.3966   1.5531   1.5697   1.6260   1.6735
     1.9239   1.9940   2.0866   2.1167   2.1970   2.2720   2.3231   2.4970
     2.5447   2.6425   2.7158   2.7967   2.9395   2.9647   3.0393   3.0885
     3.2239   3.2818   3.3631   3.3847   3.4685   3.6749   3.7332   3.8519
     3.9289   4.0896   4.1193   4.1403   4.3636   4.4645   4.7161   4.8095
     9.2016  11.1601  11.6225  11.9115  12.1715  12.7121  13.1241  13.2212
    13.3542  13.5658

     occupation numbers 
     1.0000   1.0000   1.0000   1.0000   1.0000   1.0000   1.0000   1.0000
     1.0000   1.0000   1.0000   1.0000   1.0000   1.0000   1.0000   1.0000
     1.0000   1.0000   1.0000   1.0000   1.0000   1.0000   1.0000   1.0000
     1.0000   1.0000   1.0000   1.0000   1.0000   1.0000   1.0000   1.0000
     1.0000   1.0000   1.0000   1.0000   1.0000   1.0000   1.0000   1.0000
     1.0000   1.0000   1.0000   1.0000   1.0000   1.0000   1.0000   1.0000
     1.0000   1.0000   1.0000   1.0000   1.0000   1.0000   1.0000   1.0000
     1.0000   1.0000   1.0000   1.0000   1.0000   1.0000   1.0000   1.0000
     1.0000   1.0000   1.0000   1.0000   1.0000   1.0000   1.0000   1.0000
     1.0000   1.0000   1.0000   1.0000   1.0000   1.0000   1.0000   1.0000
     1.0000   1.0000   1.0000   1.0000   1.0000   1.0000   1.0000   1.0000
     1.0000   1.0000   1.0000   1.0000   1.0000   1.0000   1.0000   1.0000
     1.0000   1.0000   1.0000   1.0000   1.0000   1.0000   1.0000   1.0000
     0.0000   0.0000   0.0000   0.0000   0.0000   0.0000   0.0000   0.0000
     0.0000   0.0000

          k = 0.0000 0.0000 0.4675 ( 36542 PWs)   bands (ev):

   -85.2395 -85.1732 -85.1702 -85.0858 -51.3458 -51.3442 -51.3229 -51.2818
   -51.2010 -51.1343 -51.0951 -51.0791 -51.0699 -51.0670 -51.0504 -50.9139
   -44.8169 -16.8673 -16.8096 -16.7913 -16.1372 -15.9833 -15.8809 -15.7814
   -13.8237 -13.7785 -13.7233 -13.6297 -13.5374 -13.5173 -13.4749 -13.4463
   -13.4110 -13.3999 -13.3113 -13.2475  -4.0473  -3.6352  -3.5660  -3.2233
    -2.0989  -1.8521  -1.8229  -1.6735  -1.4960  -1.4326  -1.3082  -1.1117
    -1.0222  -0.9003  -0.8594  -0.4847  -0.3539  -0.2431   0.2491   0.3008
     0.3566   0.5134   0.5579   0.7094   0.7244   0.7548   0.8291   1.0722
     1.0948   1.2560   1.3134   1.3561   1.4338   1.4965   1.5832   1.6250
     1.7862   1.9263   2.0859   2.1339   2.1649   2.1928   2.3849   2.4497
     2.5874   2.6280   2.7350   2.8129   2.8305   2.9643   3.0258   3.0669
     3.1543   3.2780   3.4040   3.4661   3.4886   3.6835   3.8228   3.8602
     3.9956   4.0956   4.1383   4.1901   4.3479   4.4534   4.6391   4.7399
     9.6029  11.3543  11.7404  11.9477  12.3138  12.6290  12.9031  13.1221
    13.1731  13.3248

     occupation numbers 
     1.0000   1.0000   1.0000   1.0000   1.0000   1.0000   1.0000   1.0000
     1.0000   1.0000   1.0000   1.0000   1.0000   1.0000   1.0000   1.0000
     1.0000   1.0000   1.0000   1.0000   1.0000   1.0000   1.0000   1.0000
     1.0000   1.0000   1.0000   1.0000   1.0000   1.0000   1.0000   1.0000
     1.0000   1.0000   1.0000   1.0000   1.0000   1.0000   1.0000   1.0000
     1.0000   1.0000   1.0000   1.0000   1.0000   1.0000   1.0000   1.0000
     1.0000   1.0000   1.0000   1.0000   1.0000   1.0000   1.0000   1.0000
     1.0000   1.0000   1.0000   1.0000   1.0000   1.0000   1.0000   1.0000
     1.0000   1.0000   1.0000   1.0000   1.0000   1.0000   1.0000   1.0000
     1.0000   1.0000   1.0000   1.0000   1.0000   1.0000   1.0000   1.0000
     1.0000   1.0000   1.0000   1.0000   1.0000   1.0000   1.0000   1.0000
     1.0000   1.0000   1.0000   1.0000   1.0000   1.0000   1.0000   1.0000
     1.0000   1.0000   1.0000   1.0000   1.0000   1.0000   1.0000   1.0000
     0.0000   0.0000   0.0000   0.0000   0.0000   0.0000   0.0000   0.0000
     0.0000   0.0000

          k = 0.0000 0.0000 0.7012 ( 36506 PWs)   bands (ev):

   -85.2395 -85.1732 -85.1702 -85.0858 -51.3458 -51.3442 -51.3229 -51.2818
   -51.2010 -51.1343 -51.0951 -51.0791 -51.0699 -51.0670 -51.0504 -50.9139
   -44.8169 -16.8757 -16.8092 -16.7909 -16.0732 -15.9680 -15.8634 -15.7856
   -13.8578 -13.8007 -13.7585 -13.6590 -13.5484 -13.5272 -13.4711 -13.4288
   -13.4110 -13.3929 -13.3338 -13.2639  -3.9454  -3.6532  -3.5383  -3.3020
    -1.9483  -1.8176  -1.7459  -1.6693  -1.4577  -1.4265  -1.2948  -1.0987
    -1.0128  -0.8467  -0.7431  -0.6427  -0.2234  -0.1283   0.2892   0.3406
     0.3972   0.4826   0.6151   0.6678   0.6960   0.7225   0.8011   1.0670
     1.1013   1.1766   1.2396   1.3171   1.3713   1.4067   1.5065   1.5697
     1.6267   1.7945   1.9918   2.0746   2.1625   2.3388   2.3628   2.5195
     2.5795   2.6251   2.6483   2.6664   2.8435   2.8592   2.9494   3.0522
     3.1501   3.2973   3.5363   3.5512   3.6657   3.7384   3.8550   3.8770
     4.0452   4.1112   4.1774   4.2446   4.3440   4.4417   4.5122   4.6261
    10.1555  11.6045  11.7416  12.0721  12.4207  12.5658  12.7627  12.8808
    13.0424  13.0776

     occupation numbers 
     1.0000   1.0000   1.0000   1.0000   1.0000   1.0000   1.0000   1.0000
     1.0000   1.0000   1.0000   1.0000   1.0000   1.0000   1.0000   1.0000
     1.0000   1.0000   1.0000   1.0000   1.0000   1.0000   1.0000   1.0000
     1.0000   1.0000   1.0000   1.0000   1.0000   1.0000   1.0000   1.0000
     1.0000   1.0000   1.0000   1.0000   1.0000   1.0000   1.0000   1.0000
     1.0000   1.0000   1.0000   1.0000   1.0000   1.0000   1.0000   1.0000
     1.0000   1.0000   1.0000   1.0000   1.0000   1.0000   1.0000   1.0000
     1.0000   1.0000   1.0000   1.0000   1.0000   1.0000   1.0000   1.0000
     1.0000   1.0000   1.0000   1.0000   1.0000   1.0000   1.0000   1.0000
     1.0000   1.0000   1.0000   1.0000   1.0000   1.0000   1.0000   1.0000
     1.0000   1.0000   1.0000   1.0000   1.0000   1.0000   1.0000   1.0000
     1.0000   1.0000   1.0000   1.0000   1.0000   1.0000   1.0000   1.0000
     1.0000   1.0000   1.0000   1.0000   1.0000   1.0000   1.0000   1.0000
     0.0000   0.0000   0.0000   0.0000   0.0000   0.0000   0.0000   0.0000
     0.0000   0.0000

          k = 0.0000 0.0000 0.9349 ( 36496 PWs)   bands (ev):

   -85.2395 -85.1732 -85.1702 -85.0858 -51.3458 -51.3442 -51.3229 -51.2818
   -51.2010 -51.1343 -51.0951 -51.0791 -51.0699 -51.0670 -51.0504 -50.9139
   -44.8169 -16.8825 -16.8090 -16.7884 -16.0209 -15.9645 -15.8530 -15.7909
   -13.8806 -13.8167 -13.7809 -13.6832 -13.5541 -13.5325 -13.4672 -13.4255
   -13.3954 -13.3800 -13.3602 -13.2774  -3.8305  -3.7118  -3.4933  -3.3888
    -1.8679  -1.8048  -1.6821  -1.6433  -1.4277  -1.3539  -1.3035  -1.2276
    -0.9451  -0.8076  -0.7295  -0.6428  -0.0273   0.0681   0.2351   0.3188
     0.4191   0.4415   0.5692   0.5939   0.6491   0.7477   0.8838   0.9830
     1.0936   1.1110   1.1651   1.2428   1.3041   1.3529   1.4452   1.5683
     1.6796   1.7807   1.8440   1.9686   2.1860   2.3356   2.4708   2.5117
     2.5572   2.5936   2.6135   2.6711   2.7251   2.7887   2.9316   3.0502
     3.1515   3.3031   3.6073   3.6528   3.7133   3.8650   3.8804   3.9918
     4.0050   4.1764   4.2307   4.2626   4.3220   4.3859   4.4372   4.4959
    10.7611  11.3394  11.9200  12.2104  12.3874  12.5050  12.6875  12.7778
    13.0327  13.0675

     occupation numbers 
     1.0000   1.0000   1.0000   1.0000   1.0000   1.0000   1.0000   1.0000
     1.0000   1.0000   1.0000   1.0000   1.0000   1.0000   1.0000   1.0000
     1.0000   1.0000   1.0000   1.0000   1.0000   1.0000   1.0000   1.0000
     1.0000   1.0000   1.0000   1.0000   1.0000   1.0000   1.0000   1.0000
     1.0000   1.0000   1.0000   1.0000   1.0000   1.0000   1.0000   1.0000
     1.0000   1.0000   1.0000   1.0000   1.0000   1.0000   1.0000   1.0000
     1.0000   1.0000   1.0000   1.0000   1.0000   1.0000   1.0000   1.0000
     1.0000   1.0000   1.0000   1.0000   1.0000   1.0000   1.0000   1.0000
     1.0000   1.0000   1.0000   1.0000   1.0000   1.0000   1.0000   1.0000
     1.0000   1.0000   1.0000   1.0000   1.0000   1.0000   1.0000   1.0000
     1.0000   1.0000   1.0000   1.0000   1.0000   1.0000   1.0000   1.0000
     1.0000   1.0000   1.0000   1.0000   1.0000   1.0000   1.0000   1.0000
     1.0000   1.0000   1.0000   1.0000   1.0000   1.0000   1.0000   1.0000
     0.0000   0.0000   0.0000   0.0000   0.0000   0.0000   0.0000   0.0000
     0.0000   0.0000

          k = 0.0000 0.2391 0.0000 ( 36485 PWs)   bands (ev):

   -85.2395 -85.1732 -85.1702 -85.0858 -51.3458 -51.3442 -51.3229 -51.2818
   -51.2010 -51.1343 -51.0951 -51.0791 -51.0699 -51.0670 -51.0504 -50.9139
   -44.8170 -16.8631 -16.8106 -16.7831 -16.1887 -16.0032 -15.9001 -15.7999
   -13.7880 -13.7518 -13.6741 -13.6127 -13.5732 -13.5030 -13.4807 -13.4563
   -13.3959 -13.3664 -13.2891 -13.2342  -4.1123  -3.6669  -3.5567  -3.1783
    -2.2502  -1.9382  -1.8414  -1.7138  -1.4946  -1.3814  -1.2913  -1.2488
    -1.0845  -0.9786  -0.7109  -0.4438  -0.3857  -0.2627   0.2381   0.2924
     0.3405   0.3825   0.4678   0.5697   0.6728   0.8902   0.9831   1.0439
     1.1970   1.3068   1.3147   1.3994   1.4775   1.5221   1.6012   1.6521
     1.8435   2.0809   2.1468   2.1827   2.2460   2.2923   2.3641   2.4298
     2.5663   2.6233   2.6541   2.7021   2.8301   3.0111   3.0904   3.1890
     3.2042   3.2436   3.3031   3.4645   3.5634   3.6598   3.6797   3.8553
     3.9044   4.0351   4.0919   4.1675   4.3223   4.4698   4.7882   4.8294
     9.2080  11.1775  11.6444  11.8311  12.1945  12.8395  13.0497  13.3333
    13.3998  13.5718

     occupation numbers 
     1.0000   1.0000   1.0000   1.0000   1.0000   1.0000   1.0000   1.0000
     1.0000   1.0000   1.0000   1.0000   1.0000   1.0000   1.0000   1.0000
     1.0000   1.0000   1.0000   1.0000   1.0000   1.0000   1.0000   1.0000
     1.0000   1.0000   1.0000   1.0000   1.0000   1.0000   1.0000   1.0000
     1.0000   1.0000   1.0000   1.0000   1.0000   1.0000   1.0000   1.0000
     1.0000   1.0000   1.0000   1.0000   1.0000   1.0000   1.0000   1.0000
     1.0000   1.0000   1.0000   1.0000   1.0000   1.0000   1.0000   1.0000
     1.0000   1.0000   1.0000   1.0000   1.0000   1.0000   1.0000   1.0000
     1.0000   1.0000   1.0000   1.0000   1.0000   1.0000   1.0000   1.0000
     1.0000   1.0000   1.0000   1.0000   1.0000   1.0000   1.0000   1.0000
     1.0000   1.0000   1.0000   1.0000   1.0000   1.0000   1.0000   1.0000
     1.0000   1.0000   1.0000   1.0000   1.0000   1.0000   1.0000   1.0000
     1.0000   1.0000   1.0000   1.0000   1.0000   1.0000   1.0000   1.0000
     0.0000   0.0000   0.0000   0.0000   0.0000   0.0000   0.0000   0.0000
     0.0000   0.0000

          k = 0.0000 0.2391 0.2337 ( 36495 PWs)   bands (ev):

   -85.2395 -85.1732 -85.1702 -85.0858 -51.3458 -51.3442 -51.3229 -51.2818
   -51.2010 -51.1343 -51.0951 -51.0791 -51.0699 -51.0670 -51.0504 -50.9139
   -44.8169 -16.8647 -16.8104 -16.7862 -16.1666 -15.9971 -15.8941 -15.8010
   -13.7983 -13.7590 -13.6921 -13.6152 -13.5699 -13.5104 -13.4894 -13.4462
   -13.4013 -13.3681 -13.2914 -13.2366  -4.0896  -3.6591  -3.5561  -3.1877
    -2.2053  -1.9094  -1.8410  -1.6958  -1.4909  -1.4071  -1.2834  -1.1923
    -1.0707  -0.9559  -0.7590  -0.4412  -0.3959  -0.2564   0.2480   0.2905
     0.3285   0.4146   0.4786   0.5792   0.6817   0.8957   0.9975   1.0132
     1.1666   1.2880   1.3295   1.3854   1.4460   1.4930   1.5737   1.6418
     1.9093   2.0538   2.1088   2.1484   2.2333   2.2744   2.3021   2.4971
     2.5167   2.6046   2.6767   2.7612   2.8366   2.9883   3.0455   3.1656
     3.1818   3.2582   3.3213   3.4429   3.5452   3.6742   3.7209   3.8606
     3.9376   4.0442   4.1186   4.1762   4.3058   4.4613   4.7713   4.8105
     9.3514  11.2471  11.7039  11.8591  12.2332  12.7631  13.0946  13.2134
    13.3369  13.5249

     occupation numbers 
     1.0000   1.0000   1.0000   1.0000   1.0000   1.0000   1.0000   1.0000
     1.0000   1.0000   1.0000   1.0000   1.0000   1.0000   1.0000   1.0000
     1.0000   1.0000   1.0000   1.0000   1.0000   1.0000   1.0000   1.0000
     1.0000   1.0000   1.0000   1.0000   1.0000   1.0000   1.0000   1.0000
     1.0000   1.0000   1.0000   1.0000   1.0000   1.0000   1.0000   1.0000
     1.0000   1.0000   1.0000   1.0000   1.0000   1.0000   1.0000   1.0000
     1.0000   1.0000   1.0000   1.0000   1.0000   1.0000   1.0000   1.0000
     1.0000   1.0000   1.0000   1.0000   1.0000   1.0000   1.0000   1.0000
     1.0000   1.0000   1.0000   1.0000   1.0000   1.0000   1.0000   1.0000
     1.0000   1.0000   1.0000   1.0000   1.0000   1.0000   1.0000   1.0000
     1.0000   1.0000   1.0000   1.0000   1.0000   1.0000   1.0000   1.0000
     1.0000   1.0000   1.0000   1.0000   1.0000   1.0000   1.0000   1.0000
     1.0000   1.0000   1.0000   1.0000   1.0000   1.0000   1.0000   1.0000
     0.0000   0.0000   0.0000   0.0000   0.0000   0.0000   0.0000   0.0000
     0.0000   0.0000

          k = 0.0000 0.2391 0.4675 ( 36500 PWs)   bands (ev):

   -85.2395 -85.1732 -85.1702 -85.0858 -51.3458 -51.3442 -51.3229 -51.2818
   -51.2010 -51.1343 -51.0951 -51.0791 -51.0699 -51.0670 -51.0504 -50.9139
   -44.8169 -16.8688 -16.8097 -16.7907 -16.1162 -15.9795 -15.8813 -15.7998
   -13.8267 -13.7758 -13.7292 -13.6308 -13.5710 -13.5213 -13.5010 -13.4316
   -13.4089 -13.3682 -13.3020 -13.2454  -4.0240  -3.6477  -3.5472  -3.2281
    -2.0791  -1.8474  -1.8203  -1.6714  -1.4755  -1.4215  -1.2841  -1.0811
    -1.0135  -0.8827  -0.8679  -0.5232  -0.3409  -0.2298   0.2498   0.3040
     0.3605   0.4021   0.5435   0.6242   0.6929   0.8612   0.9267   1.0546
     1.1202   1.2726   1.3004   1.3484   1.3730   1.4605   1.5167   1.6293
     1.8282   1.9392   2.0919   2.1428   2.1576   2.2331   2.3316   2.4469
     2.5438   2.6588   2.6956   2.7699   2.8407   2.8566   3.0028   3.0826
     3.1533   3.2655   3.3992   3.4711   3.5505   3.7040   3.7999   3.8709
     4.0039   4.0630   4.1102   4.2422   4.2763   4.4546   4.7213   4.7596
     9.7391  11.4386  11.8291  11.9450  12.3456  12.6746  12.9124  13.1114
    13.2109  13.3574

     occupation numbers 
     1.0000   1.0000   1.0000   1.0000   1.0000   1.0000   1.0000   1.0000
     1.0000   1.0000   1.0000   1.0000   1.0000   1.0000   1.0000   1.0000
     1.0000   1.0000   1.0000   1.0000   1.0000   1.0000   1.0000   1.0000
     1.0000   1.0000   1.0000   1.0000   1.0000   1.0000   1.0000   1.0000
     1.0000   1.0000   1.0000   1.0000   1.0000   1.0000   1.0000   1.0000
     1.0000   1.0000   1.0000   1.0000   1.0000   1.0000   1.0000   1.0000
     1.0000   1.0000   1.0000   1.0000   1.0000   1.0000   1.0000   1.0000
     1.0000   1.0000   1.0000   1.0000   1.0000   1.0000   1.0000   1.0000
     1.0000   1.0000   1.0000   1.0000   1.0000   1.0000   1.0000   1.0000
     1.0000   1.0000   1.0000   1.0000   1.0000   1.0000   1.0000   1.0000
     1.0000   1.0000   1.0000   1.0000   1.0000   1.0000   1.0000   1.0000
     1.0000   1.0000   1.0000   1.0000   1.0000   1.0000   1.0000   1.0000
     1.0000   1.0000   1.0000   1.0000   1.0000   1.0000   1.0000   1.0000
     0.0000   0.0000   0.0000   0.0000   0.0000   0.0000   0.0000   0.0000
     0.0000   0.0000

          k = 0.0000 0.2391 0.7012 ( 36515 PWs)   bands (ev):

   -85.2395 -85.1732 -85.1702 -85.0858 -51.3458 -51.3442 -51.3229 -51.2818
   -51.2010 -51.1343 -51.0951 -51.0791 -51.0699 -51.0670 -51.0504 -50.9139
   -44.8169 -16.8763 -16.8092 -16.7905 -16.0566 -15.9596 -15.8701 -15.7974
   -13.8612 -13.7981 -13.7666 -13.6602 -13.5762 -13.5297 -13.5021 -13.4275
   -13.4019 -13.3657 -13.3184 -13.2582  -3.9256  -3.6561  -3.5244  -3.3031
    -1.9305  -1.8094  -1.7423  -1.6648  -1.4496  -1.4002  -1.2720  -1.0661
    -1.0043  -0.8503  -0.7455  -0.6527  -0.2420  -0.1569   0.2190   0.3257
     0.3684   0.4354   0.5967   0.7170   0.7314   0.7857   0.8632   1.0531
     1.0885   1.2005   1.2369   1.2917   1.3592   1.4184   1.4629   1.5671
     1.6335   1.7998   1.9492   2.0997   2.2133   2.3038   2.3292   2.4592
     2.5493   2.6186   2.6996   2.7343   2.7617   2.8367   2.8821   3.0543
     3.1424   3.2554   3.5242   3.5905   3.6193   3.7484   3.8415   3.8793
     4.0389   4.0796   4.1191   4.2388   4.3407   4.4502   4.6403   4.6867
    10.2776  11.6965  11.8330  12.0966  12.4703  12.6366  12.7745  12.9132
    13.0284  13.1064

     occupation numbers 
     1.0000   1.0000   1.0000   1.0000   1.0000   1.0000   1.0000   1.0000
     1.0000   1.0000   1.0000   1.0000   1.0000   1.0000   1.0000   1.0000
     1.0000   1.0000   1.0000   1.0000   1.0000   1.0000   1.0000   1.0000
     1.0000   1.0000   1.0000   1.0000   1.0000   1.0000   1.0000   1.0000
     1.0000   1.0000   1.0000   1.0000   1.0000   1.0000   1.0000   1.0000
     1.0000   1.0000   1.0000   1.0000   1.0000   1.0000   1.0000   1.0000
     1.0000   1.0000   1.0000   1.0000   1.0000   1.0000   1.0000   1.0000
     1.0000   1.0000   1.0000   1.0000   1.0000   1.0000   1.0000   1.0000
     1.0000   1.0000   1.0000   1.0000   1.0000   1.0000   1.0000   1.0000
     1.0000   1.0000   1.0000   1.0000   1.0000   1.0000   1.0000   1.0000
     1.0000   1.0000   1.0000   1.0000   1.0000   1.0000   1.0000   1.0000
     1.0000   1.0000   1.0000   1.0000   1.0000   1.0000   1.0000   1.0000
     1.0000   1.0000   1.0000   1.0000   1.0000   1.0000   1.0000   1.0000
     0.0000   0.0000   0.0000   0.0000   0.0000   0.0000   0.0000   0.0000
     0.0000   0.0000

          k = 0.0000 0.2391 0.9349 ( 36488 PWs)   bands (ev):

   -85.2395 -85.1732 -85.1702 -85.0858 -51.3458 -51.3442 -51.3229 -51.2818
   -51.2010 -51.1343 -51.0951 -51.0791 -51.0699 -51.0670 -51.0504 -50.9139
   -44.8169 -16.8819 -16.8090 -16.7883 -16.0111 -15.9564 -15.8592 -15.7962
   -13.8847 -13.8158 -13.7884 -13.6839 -13.5779 -13.5354 -13.4980 -13.4315
   -13.3805 -13.3693 -13.3318 -13.2699  -3.8171  -3.7028  -3.4868  -3.3846
    -1.8495  -1.7911  -1.6796  -1.6447  -1.4185  -1.3338  -1.2798  -1.1864
    -0.9523  -0.8026  -0.7284  -0.6380  -0.0997  -0.0122   0.1344   0.1953
     0.4520   0.5403   0.6222   0.6530   0.6936   0.8182   0.9117   0.9513
     1.0792   1.0995   1.2116   1.2492   1.3065   1.3529   1.4050   1.5093
     1.6756   1.7867   1.8072   1.9917   2.2115   2.3208   2.4027   2.4665
     2.5523   2.5838   2.6368   2.6733   2.7400   2.8127   2.8834   3.0359
     3.1383   3.2488   3.5831   3.6647   3.7314   3.8264   3.8528   3.8876
     3.9970   4.0502   4.1827   4.2456   4.4044   4.4543   4.5540   4.6218
    10.8735  11.4480  12.0008  12.2928  12.4320  12.5591  12.7330  12.8128
    12.9479  13.0857

     occupation numbers 
     1.0000   1.0000   1.0000   1.0000   1.0000   1.0000   1.0000   1.0000
     1.0000   1.0000   1.0000   1.0000   1.0000   1.0000   1.0000   1.0000
     1.0000   1.0000   1.0000   1.0000   1.0000   1.0000   1.0000   1.0000
     1.0000   1.0000   1.0000   1.0000   1.0000   1.0000   1.0000   1.0000
     1.0000   1.0000   1.0000   1.0000   1.0000   1.0000   1.0000   1.0000
     1.0000   1.0000   1.0000   1.0000   1.0000   1.0000   1.0000   1.0000
     1.0000   1.0000   1.0000   1.0000   1.0000   1.0000   1.0000   1.0000
     1.0000   1.0000   1.0000   1.0000   1.0000   1.0000   1.0000   1.0000
     1.0000   1.0000   1.0000   1.0000   1.0000   1.0000   1.0000   1.0000
     1.0000   1.0000   1.0000   1.0000   1.0000   1.0000   1.0000   1.0000
     1.0000   1.0000   1.0000   1.0000   1.0000   1.0000   1.0000   1.0000
     1.0000   1.0000   1.0000   1.0000   1.0000   1.0000   1.0000   1.0000
     1.0000   1.0000   1.0000   1.0000   1.0000   1.0000   1.0000   1.0000
     0.0000   0.0000   0.0000   0.0000   0.0000   0.0000   0.0000   0.0000
     0.0000   0.0000

          k = 0.0000 0.4781 0.0000 ( 36507 PWs)   bands (ev):

   -85.2395 -85.1732 -85.1702 -85.0858 -51.3458 -51.3442 -51.3229 -51.2818
   -51.2010 -51.1343 -51.0951 -51.0791 -51.0699 -51.0670 -51.0504 -50.9139
   -44.8170 -16.8646 -16.8110 -16.7830 -16.1376 -15.9998 -15.8957 -15.8494
   -13.7954 -13.7428 -13.6694 -13.6475 -13.6111 -13.5149 -13.4959 -13.4311
   -13.3935 -13.3200 -13.2920 -13.2338  -4.0417  -3.7293  -3.4861  -3.2135
    -2.1813  -1.9604  -1.8238  -1.7241  -1.4560  -1.3788  -1.2452  -1.1566
    -1.0573  -0.9163  -0.6846  -0.5097  -0.3551  -0.1787   0.2224   0.2729
     0.3531   0.3714   0.4194   0.4734   0.5184   0.8453   1.0847   1.1339
     1.1659   1.2073   1.2888   1.3190   1.3883   1.4104   1.5725   1.7068
     1.8985   2.0555   2.1526   2.1968   2.2493   2.2783   2.3225   2.4132
     2.5647   2.6248   2.6425   2.7066   2.8080   2.9702   3.0404   3.0649
     3.1385   3.2072   3.4857   3.5325   3.6129   3.6608   3.7102   3.8677
     3.8982   3.9611   4.0827   4.1195   4.2441   4.5846   4.8017   4.8390
     9.6312  11.3920  11.4910  11.8710  12.3464  12.8448  13.0619  13.2363
    13.5062  13.5891

     occupation numbers 
     1.0000   1.0000   1.0000   1.0000   1.0000   1.0000   1.0000   1.0000
     1.0000   1.0000   1.0000   1.0000   1.0000   1.0000   1.0000   1.0000
     1.0000   1.0000   1.0000   1.0000   1.0000   1.0000   1.0000   1.0000
     1.0000   1.0000   1.0000   1.0000   1.0000   1.0000   1.0000   1.0000
     1.0000   1.0000   1.0000   1.0000   1.0000   1.0000   1.0000   1.0000
     1.0000   1.0000   1.0000   1.0000   1.0000   1.0000   1.0000   1.0000
     1.0000   1.0000   1.0000   1.0000   1.0000   1.0000   1.0000   1.0000
     1.0000   1.0000   1.0000   1.0000   1.0000   1.0000   1.0000   1.0000
     1.0000   1.0000   1.0000   1.0000   1.0000   1.0000   1.0000   1.0000
     1.0000   1.0000   1.0000   1.0000   1.0000   1.0000   1.0000   1.0000
     1.0000   1.0000   1.0000   1.0000   1.0000   1.0000   1.0000   1.0000
     1.0000   1.0000   1.0000   1.0000   1.0000   1.0000   1.0000   1.0000
     1.0000   1.0000   1.0000   1.0000   1.0000   1.0000   1.0000   1.0000
     0.0000   0.0000   0.0000   0.0000   0.0000   0.0000   0.0000   0.0000
     0.0000   0.0000

          k = 0.0000 0.4781 0.2337 ( 36461 PWs)   bands (ev):

   -85.2395 -85.1732 -85.1702 -85.0858 -51.3458 -51.3442 -51.3229 -51.2818
   -51.2010 -51.1343 -51.0951 -51.0791 -51.0699 -51.0670 -51.0504 -50.9139
   -44.8169 -16.8659 -16.8107 -16.7859 -16.1153 -15.9931 -15.8931 -15.8473
   -13.8051 -13.7522 -13.6923 -13.6391 -13.6113 -13.5298 -13.5035 -13.4210
   -13.3974 -13.3253 -13.2900 -13.2339  -4.0205  -3.7174  -3.4886  -3.2199
    -2.1414  -1.9299  -1.8181  -1.7055  -1.4541  -1.3922  -1.1949  -1.1552
[...]
     atom   24 type  3   force =     0.00110995    0.00127415    0.00091021
     atom   25 type  3   force =    -0.00005270    0.00153162    0.00142798
     The non-local contrib.  to forces
     atom    1 type  2   force =     0.03013379    0.01442365   -0.00233752
     atom    2 type  1   force =     0.09094583    0.04814385    0.12464356
     atom    3 type  1   force =     0.05517983   -0.00452619    0.10511468
     atom    4 type  1   force =    -0.14373323   -0.06814281   -0.10807870
     atom    5 type  1   force =    -0.05499672    0.01898520   -0.09330773
     atom    6 type  4   force =    -0.02461243   -0.00016912   -0.03982399
     atom    7 type  4   force =     0.03555692   -0.00341830   -0.01685995
     atom    8 type  4   force =     0.01243932    0.00913785    0.04261933
     atom    9 type  4   force =    -0.00741642   -0.00092055    0.03448555
     atom   10 type  3   force =     0.31675630   -0.02650477   -1.49407745
     atom   11 type  3   force =    -0.13790718   -0.01891559   -1.44158742
     atom   12 type  3   force =    -0.38019523    0.01623384    1.49857977
     atom   13 type  3   force =     0.24863936    0.00256691    1.48758792
     atom   14 type  3   force =     1.23311991   -0.02418699   -0.62890278
     atom   15 type  3   force =    -1.19614272    0.02131198   -0.73495010
     atom   16 type  3   force =    -1.21994265   -0.05301151    0.39494283
     atom   17 type  3   force =     1.18230688   -0.00971496    0.64062098
     atom   18 type  3   force =    -0.54397357   -1.11009123    0.75277131
     atom   19 type  3   force =     0.53978163    1.16114532    0.75272391
     atom   20 type  3   force =     0.52356920   -1.08296579   -0.69120784
     atom   21 type  3   force =    -0.54591149    1.07931018   -0.77707746
     atom   22 type  3   force =     0.59863629    1.12127364   -0.71922157
     atom   23 type  3   force =    -0.68316117   -1.04472116   -0.62201945
     atom   24 type  3   force =    -0.52801946    1.09076793    0.76564033
     atom   25 type  3   force =     0.58213849   -1.10751093    0.83342532
     The ionic contribution  to forces
     atom    1 type  2   force =    -1.58173766    0.32417066    0.31167108
     atom    2 type  1   force =    -0.72093713   -0.54709919   -0.44382865
     atom    3 type  1   force =    -9.08392483    1.10541822   -0.45797304
     atom    4 type  1   force =     2.54262515    1.14287970    0.48831500
     atom    5 type  1   force =     9.16610210   -1.48831133    0.80722049
     atom    6 type  4   force =    -3.81257095   -0.04819558    0.35625432
     atom    7 type  4   force =     0.90471258    1.23109123    0.77299017
     atom    8 type  4   force =     4.68883531   -0.00712058   -0.42064905
     atom    9 type  4   force =    -2.16228350   -1.37839709   -0.86254168
     atom   10 type  3   force =   -10.59310922    0.09332994    2.74314922
     atom   11 type  3   force =     4.76869608    2.04997110    1.44843661
     atom   12 type  3   force =    11.70749063   -0.14771996   -2.83129705
     atom   13 type  3   force =    -7.35769164   -1.94330140   -2.17690054
     atom   14 type  3   force =     0.20966834   -1.82365400    4.91235831
     atom   15 type  3   force =    -2.36302206   -0.13289718    6.66919490
     atom   16 type  3   force =    -1.18845938    2.62629516   -2.73671071
     atom   17 type  3   force =     3.41607354    0.13603120   -6.06738621
     atom   18 type  3   force =    -4.67729312    2.98168222   -2.88485586
     atom   19 type  3   force =    -0.39298130   -3.87255198   -1.56350708
     atom   20 type  3   force =     4.98359675    3.49984854    2.37150244
     atom   21 type  3   force =    -1.90819259   -2.31341426    2.68897831
     atom   22 type  3   force =     5.25544190   -3.62360630    2.69947998
     atom   23 type  3   force =     1.32735637    1.73201760    0.21562980
     atom   24 type  3   force =    -4.29985237   -2.78054773   -2.94465784
     atom   25 type  3   force =     1.17145698    3.18408102   -3.09487292
     The local contribution  to forces
     atom    1 type  2   force =     1.54635093   -0.35262895   -0.30639644
     atom    2 type  1   force =     0.62869814    0.49986880    0.31817435
     atom    3 type  1   force =     9.02839707   -1.10047661    0.35242590
     atom    4 type  1   force =    -2.39886066   -1.07542881   -0.37825229
     atom    5 type  1   force =    -9.10998767    1.47017225   -0.71411510
     atom    6 type  4   force =     3.83677507    0.04878247   -0.32107340
     atom    7 type  4   force =    -0.93545425   -1.22683637   -0.75696146
     atom    8 type  4   force =    -4.70267557   -0.00066385    0.38225202
     atom    9 type  4   force =     2.16924552    1.37903200    0.83018107
     atom   10 type  3   force =    10.28081896   -0.06629708   -1.26120361
     atom   11 type  3   force =    -4.63213484   -2.03104258   -0.01785534
     atom   12 type  3   force =   -11.33203983    0.13254994    1.34488575
     atom   13 type  3   force =     7.11125276    1.94160597    0.70076643
     atom   14 type  3   force =    -1.43210847    1.84938322   -4.28829176
     atom   15 type  3   force =     3.55084855    0.11182119   -5.94222414
     atom   16 type  3   force =     2.39681578   -2.57297944    2.34358455
     atom   17 type  3   force =    -4.58863538   -0.12607519    5.43282017
     atom   18 type  3   force =     5.21753190   -1.88217564    2.13903140
     atom   19 type  3   force =    -0.14181488    2.72202605    0.81787377
     atom   20 type  3   force =    -5.50229026   -2.42570281   -1.68760716
     atom   21 type  3   force =     2.44900058    1.24421139   -1.91990402
     atom   22 type  3   force =    -5.84899194    2.51284237   -1.98768678
     atom   23 type  3   force =    -0.64986415   -0.69625067    0.40006995
     atom   24 type  3   force =     4.82441788    1.70048839    2.18689599
     atom   25 type  3   force =    -1.74861455   -2.08452969    2.27050871
     The core correction contribution to forces
     atom    1 type  2   force =     0.00000000    0.00000000    0.00000000
     atom    2 type  1   force =    -0.00133463   -0.00045992   -0.00052826
     atom    3 type  1   force =    -0.00021134    0.00013285    0.00035385
     atom    4 type  1   force =     0.00238714    0.00073888    0.00028369
     atom    5 type  1   force =     0.00022432   -0.00031383   -0.00032783
     atom    6 type  4   force =     0.00191441   -0.00001817    0.00276424
     atom    7 type  4   force =    -0.00233867   -0.00005043    0.00084504
     atom    8 type  4   force =    -0.00121775   -0.00055522   -0.00291557
     atom    9 type  4   force =     0.00064865    0.00064787   -0.00188795
     atom   10 type  3   force =    -0.00345992    0.00024121    0.01303869
     atom   11 type  3   force =     0.00189404    0.00015035    0.01246950
     atom   12 type  3   force =     0.00402438   -0.00017187   -0.01304695
     atom   13 type  3   force =    -0.00284787   -0.00002208   -0.01294205
     atom   14 type  3   force =    -0.01041192    0.00025630    0.00603339
     atom   15 type  3   force =     0.01014880   -0.00019874    0.00694734
     atom   16 type  3   force =     0.01026677    0.00041360   -0.00388205
     atom   17 type  3   force =    -0.01007402    0.00008263   -0.00609585
     atom   18 type  3   force =     0.00473094    0.00962758   -0.00681876
     atom   19 type  3   force =    -0.00462327   -0.01014631   -0.00686516
     atom   20 type  3   force =    -0.00455765    0.00936371    0.00625057
     atom   21 type  3   force =     0.00471878   -0.00933581    0.00712562
     atom   22 type  3   force =    -0.00526138   -0.00971639    0.00651105
     atom   23 type  3   force =     0.00596745    0.00906833    0.00569029
     atom   24 type  3   force =     0.00456757   -0.00943066   -0.00697120
     atom   25 type  3   force =    -0.00503428    0.00949583   -0.00763048
     The Hubbard contrib.    to forces
     atom    1 type  2   force =     0.00000000    0.00000000    0.00000000
     atom    2 type  1   force =     0.00000000    0.00000000    0.00000000
     atom    3 type  1   force =     0.00000000    0.00000000    0.00000000
     atom    4 type  1   force =     0.00000000    0.00000000    0.00000000
     atom    5 type  1   force =     0.00000000    0.00000000    0.00000000
     atom    6 type  4   force =     0.00000000    0.00000000    0.00000000
     atom    7 type  4   force =     0.00000000    0.00000000    0.00000000
     atom    8 type  4   force =     0.00000000    0.00000000    0.00000000
     atom    9 type  4   force =     0.00000000    0.00000000    0.00000000
     atom   10 type  3   force =     0.00000000    0.00000000    0.00000000
     atom   11 type  3   force =     0.00000000    0.00000000    0.00000000
     atom   12 type  3   force =     0.00000000    0.00000000    0.00000000
     atom   13 type  3   force =     0.00000000    0.00000000    0.00000000
     atom   14 type  3   force =     0.00000000    0.00000000    0.00000000
     atom   15 type  3   force =     0.00000000    0.00000000    0.00000000
     atom   16 type  3   force =     0.00000000    0.00000000    0.00000000
     atom   17 type  3   force =     0.00000000    0.00000000    0.00000000
     atom   18 type  3   force =     0.00000000    0.00000000    0.00000000
     atom   19 type  3   force =     0.00000000    0.00000000    0.00000000
     atom   20 type  3   force =     0.00000000    0.00000000    0.00000000
     atom   21 type  3   force =     0.00000000    0.00000000    0.00000000
     atom   22 type  3   force =     0.00000000    0.00000000    0.00000000
     atom   23 type  3   force =     0.00000000    0.00000000    0.00000000
     atom   24 type  3   force =     0.00000000    0.00000000    0.00000000
     atom   25 type  3   force =     0.00000000    0.00000000    0.00000000
     The SCF correction term to forces
     atom    1 type  2   force =     0.00000478    0.00000093   -0.00000018
     atom    2 type  1   force =    -0.00000169    0.00000007    0.00000027
     atom    3 type  1   force =    -0.00000365    0.00000007   -0.00000042
     atom    4 type  1   force =     0.00000147    0.00000008   -0.00000046
     atom    5 type  1   force =     0.00000164   -0.00000020   -0.00000024
     atom    6 type  4   force =    -0.00000356   -0.00000009    0.00000042
     atom    7 type  4   force =     0.00000164   -0.00000012   -0.00000010
     atom    8 type  4   force =    -0.00000173    0.00000004    0.00000023
     atom    9 type  4   force =     0.00000350   -0.00000012    0.00000044
     atom   10 type  3   force =    -0.00000612    0.00000003   -0.00000301
     atom   11 type  3   force =     0.00000030   -0.00000011    0.00000145
     atom   12 type  3   force =    -0.00000187    0.00000006   -0.00000000
     atom   13 type  3   force =     0.00000377    0.00000007   -0.00000052
     atom   14 type  3   force =     0.00000667    0.00000013    0.00000162
     atom   15 type  3   force =    -0.00000153    0.00000017   -0.00000084
     atom   16 type  3   force =     0.00000401   -0.00000006    0.00000004
     atom   17 type  3   force =    -0.00000363   -0.00000011    0.00000057
     atom   18 type  3   force =    -0.00000391    0.00000390    0.00000322
     atom   19 type  3   force =     0.00000042    0.00000432   -0.00000245
     atom   20 type  3   force =    -0.00000088    0.00000005   -0.00000017
     atom   21 type  3   force =     0.00000244   -0.00000061    0.00000016
     atom   22 type  3   force =    -0.00000080   -0.00000000   -0.00000016
     atom   23 type  3   force =     0.00000236    0.00000053    0.00000024
     atom   24 type  3   force =    -0.00000395   -0.00000390    0.00000310
     atom   25 type  3   force =     0.00000037   -0.00000474   -0.00000247

     Total force =     0.017899     Total SCF correction =     0.000019


     Computing stress (Cartesian axis) and pressure


     negative rho (up, down):  0.000E+00 9.370E-04
          total   stress  (Ry/bohr**3)                   (kbar)     P=      -26.22
  -0.00031318  -0.00001271  -0.00002908          -46.07       -1.87       -4.28
  -0.00001271  -0.00017397   0.00002267           -1.87      -25.59        3.33
  -0.00002908   0.00002267  -0.00004755           -4.28        3.33       -6.99

     kinetic stress (kbar)  26388.57     13.70     -3.74
                               13.70  26607.40      3.22
                               -3.74      3.22  26415.90

     local   stress (kbar)  -4581.77   2397.44    986.19
                             2397.44 -14406.86   -888.09
                              986.19   -888.09  -7739.23

     nonloc. stress (kbar)  -6722.05      1.37     -0.09
                                1.37  -6667.42     -1.73
                               -0.09     -1.73  -6665.58

     hartree stress (kbar)  12562.24   -972.18   -386.01
                             -972.18  17907.38    358.03
                             -386.01    358.03  14583.18

     exc-cor stress (kbar)  -2797.67     -1.29     -0.78
                               -1.29  -2804.68      0.42
                               -0.78      0.42  -2802.55

     corecor stress (kbar)  -3115.00      0.46      0.72
                                0.46  -3114.35      0.01
                                0.72      0.01  -3116.15

     ewald   stress (kbar) -21780.38  -1441.37   -600.56
                            -1441.37 -17547.07    531.48
                             -600.56    531.48 -20682.57

     hubbard stress (kbar)      0.00      0.00      0.00
                                0.00      0.00      0.00
                                0.00      0.00      0.00

     DFT-D   stress (kbar)      0.00      0.00      0.00
                                0.00      0.00      0.00
                                0.00      0.00      0.00

     XDM     stress (kbar)      0.00      0.00      0.00
                                0.00      0.00      0.00
                                0.00      0.00      0.00

     dft-nl  stress (kbar)      0.00      0.00      0.00
                                0.00      0.00      0.00
                                0.00      0.00      0.00

     TS-vdW  stress (kbar)      0.00      0.00      0.00
                                0.00      0.00      0.00
                                0.00      0.00      0.00



     init_run     :    193.74s CPU    198.85s WALL (       1 calls)
     electrons    :  17329.69s CPU  17616.55s WALL (       1 calls)
     forces       :    121.75s CPU    124.20s WALL (       1 calls)
     stress       :    786.72s CPU    798.95s WALL (       1 calls)

     Called by init_run:
     wfcinit      :    183.88s CPU    187.83s WALL (       1 calls)
     wfcinit:atom :      3.98s CPU      4.09s WALL (     316 calls)
     wfcinit:wfcr :    169.65s CPU    173.24s WALL (     316 calls)
     potinit      :      3.29s CPU      3.59s WALL (       1 calls)
     hinit0       :      3.45s CPU      3.63s WALL (       1 calls)

     Called by electrons:
     c_bands      :  15087.24s CPU  15291.79s WALL (      32 calls)
     sum_band     :   2140.05s CPU   2201.57s WALL (      32 calls)
     v_of_rho     :     30.59s CPU     32.11s WALL (      33 calls)
     v_h          :      1.77s CPU      1.84s WALL (      33 calls)
     v_xc         :     30.67s CPU     32.19s WALL (      35 calls)
     newd         :     47.27s CPU     66.66s WALL (      33 calls)
     PAW_pot      :     14.50s CPU     14.57s WALL (      33 calls)
     mix_rho      :      8.87s CPU      9.14s WALL (      32 calls)

     Called by c_bands:
     init_us_2    :    297.22s CPU    307.09s WALL (   21172 calls)
     cegterg      :  14609.54s CPU  14800.08s WALL (   10112 calls)

     Called by sum_band:
     sum_band:wei :      0.51s CPU      0.52s WALL (      32 calls)
     sum_band:loo :   1985.65s CPU   2021.90s WALL (      32 calls)
     sum_band:buf :     75.11s CPU     77.31s WALL (   10112 calls)
     sum_band:ini :    141.92s CPU    145.98s WALL (   10112 calls)
     sum_band:cal :    716.41s CPU    725.57s WALL (   10112 calls)
     sum_band:bec :      5.54s CPU      5.64s WALL (   10112 calls)
     addusdens    :    143.06s CPU    168.08s WALL (      32 calls)
     addusd:skk   :      0.80s CPU      0.85s WALL (      96 calls)
     addusd:dgemm :     63.88s CPU     84.56s WALL (     192 calls)
     addusd:qvan2 :     76.58s CPU     77.54s WALL (     192 calls)

     Called by *egterg:
     cdiaghg      :    902.37s CPU    926.57s WALL (   38858 calls)
     cegterg:over :   1432.04s CPU   1459.04s WALL (   28746 calls)
     cegterg:upda :    751.43s CPU    757.31s WALL (   28746 calls)
     cegterg:last :   1513.53s CPU   1525.06s WALL (   16692 calls)
     h_psi        :   7425.06s CPU   7521.00s WALL (   39174 calls)
     s_psi        :   1709.32s CPU   1722.18s WALL (   39174 calls)
     g_psi        :     13.92s CPU     14.14s WALL (   28746 calls)

     Called by h_psi:
     h_psi:calbec :   1848.34s CPU   1872.29s WALL (   39174 calls)
     vloc_psi     :   3589.67s CPU   3641.34s WALL (   39174 calls)
     add_vuspsi   :   1817.91s CPU   1831.87s WALL (   39174 calls)

     General routines
     calbec       :   2675.02s CPU   2709.85s WALL (   50866 calls)
     fft          :     33.80s CPU     35.51s WALL (     863 calls)
     ffts         :      0.55s CPU      0.62s WALL (     130 calls)
     fftw         :   4410.00s CPU   4478.94s WALL ( 6246786 calls)
     interpolate  :      2.46s CPU      2.62s WALL (      66 calls)

     Parallel routines
     fft_scatt_xy :    270.27s CPU    273.43s WALL ( 6247779 calls)
     fft_scatt_yz :   2367.18s CPU   2413.60s WALL ( 6247779 calls)

     PAW routines
     PAW_pot      :     14.50s CPU     14.57s WALL (      33 calls)

     PWSCF        :      5h 7m CPU      5h12m WALL


   This run was terminated on:   4: 2:24  14Dec2022            

=------------------------------------------------------------------------------=
   JOB DONE.
=------------------------------------------------------------------------------=
Note: The following floating-point exceptions are signalling: IEEE_UNDERFLOW_FLAG IEEE_DENORMAL
Note: The following floating-point exceptions are signalling: IEEE_DENORMAL
Note: The following floating-point exceptions are signalling: IEEE_DENORMAL
Note: The following floating-point exceptions are signalling: IEEE_DENORMAL
Note: The following floating-point exceptions are signalling: IEEE_DENORMAL
Note: The following floating-point exceptions are signalling: IEEE_DENORMAL
Note: The following floating-point exceptions are signalling: IEEE_DENORMAL
Note: The following floating-point exceptions are signalling: IEEE_INVALID_FLAG IEEE_DENORMAL
Note: The following floating-point exceptions are signalling: IEEE_DENORMAL
Note: The following floating-point exceptions are signalling: IEEE_DENORMAL
Note: The following floating-point exceptions are signalling: IEEE_DENORMAL
Note: The following floating-point exceptions are signalling: IEEE_INVALID_FLAG IEEE_DENORMAL
Note: The following floating-point exceptions are signalling: IEEE_DENORMAL
Note: The following floating-point exceptions are signalling: IEEE_DENORMAL
Note: The following floating-point exceptions are signalling: IEEE_DENORMAL
Note: The following floating-point exceptions are signalling: IEEE_DENORMAL
Note: The following floating-point exceptions are signalling: IEEE_DENORMAL
Note: The following floating-point exceptions are signalling: IEEE_DENORMAL
Note: The following floating-point exceptions are signalling: IEEE_DENORMAL
Note: The following floating-point exceptions are signalling: IEEE_DENORMAL
Note: The following floating-point exceptions are signalling: IEEE_DENORMAL
Note: The following floating-point exceptions are signalling: IEEE_DENORMAL
Note: The following floating-point exceptions are signalling: IEEE_DENORMAL
Note: The following floating-point exceptions are signalling: IEEE_DENORMAL
