
     Program PWSCF v.6.7MaX starts on 16Dec2022 at  3: 5:19 

     This program is part of the open-source Quantum ESPRESSO suite
     for quantum simulation of materials; please cite
         "P. Giannozzi et al., J. Phys.:Condens. Matter 21 395502 (2009);
         "P. Giannozzi et al., J. Phys.:Condens. Matter 29 465901 (2017);
          URL http://www.quantum-espresso.org", 
     in publications or presentations arising from this work. More details at
     http://www.quantum-espresso.org/quote

     Parallel version (MPI), running on    16 processors

     MPI processes distributed on     1 nodes
     R & G space division:  proc/nbgrp/npool/nimage =      16
     Reading input from scale_2dab-02.in

     Current dimensions of program PWSCF are:
     Max number of different atomic species (ntypx) = 10
     Max number of k-points (npk) =  40000
     Max angular momentum in pseudopotentials (lmaxx) =  3
     Message from routine read_pp_mesh:
     mesh size missing, using the one in header
     file Fe.pbe-spn-kjpaw_psl.0.2.1.UPF: wavefunction(s)  3D renormalized
     file O.pbe-n-kjpaw_psl.0.1.UPF: wavefunction(s)  2P renormalized

     Subspace diagonalization in iterative solution of the eigenvalue problem:
     a serial algorithm will be used


     Parallelization info
     --------------------
     sticks:   dense  smooth     PW     G-vecs:    dense   smooth      PW
     Min        1200     444    119                78254    17644    2483
     Max        1202     445    120                78255    17646    2486
     Sum       19211    7107   1919              1252071   282325   39769



     bravais-lattice index     =            0
     lattice parameter (alat)  =      19.3373  a.u.
     unit-cell volume          =    2088.9460 (a.u.)^3
     number of atoms/cell      =           25
     number of atomic types    =            4
     number of electrons       =       189.00
     number of Kohn-Sham states=          114
     kinetic-energy cutoff     =     100.0000  Ry
     charge density cutoff     =    1080.0000  Ry
     scf convergence threshold =      2.0E-10
     mixing beta               =       0.4000
     number of iterations used =            8  plain     mixing
     Exchange-correlation= PBE
                           (   1   4   3   4   0   0   0)

     celldm(1)=  19.337306  celldm(2)=   0.000000  celldm(3)=   0.000000
     celldm(4)=   0.000000  celldm(5)=   0.000000  celldm(6)=   0.000000

     crystal axes: (cart. coord. in units of alat)
               a(1) = (   1.000000   0.000000   0.000000 )  
               a(2) = (   0.000000   0.597590   0.000000 )  
               a(3) = (   0.000000   0.000000   0.483433 )  

     reciprocal axes: (cart. coord. in units 2 pi/alat)
               b(1) = (  1.000000  0.000000  0.000000 )  
               b(2) = (  0.000000  1.673388  0.000000 )  
               b(3) = (  0.000000  0.000000  2.068540 )  


     PseudoPot. # 1 for Fe read from file:
     /opt/QEpot/SSSP_precision_pseudos/Fe.pbe-spn-kjpaw_psl.0.2.1.UPF
     MD5 check sum: e86618425769142926afa95317d90200
     Pseudo is Projector augmented-wave + core cor, Zval = 16.0
     Generated using "atomic" code by A. Dal Corso  v.5.0.99 svn rev. 10869
     Shape of augmentation charge: PSQ
     Using radial grid of 1191 points,  6 beta functions with: 
                l(1) =   0
                l(2) =   0
                l(3) =   1
                l(4) =   1
                l(5) =   2
                l(6) =   2
     Q(r) pseudized with 0 coefficients 


     PseudoPot. # 2 for Na read from file:
     /opt/QEpot/SSSP_precision_pseudos/Na_ONCV_PBE-1.0.oncvpsp.upf
     MD5 check sum: 24a298df0a6742ae313db96548fdb2a4
     Pseudo is Norm-conserving, Zval =  9.0
     Generated using ONCVPSP code by D. R. Hamann
     Using radial grid of 1992 points,  4 beta functions with: 
                l(1) =   0
                l(2) =   0
                l(3) =   1
                l(4) =   1

     PseudoPot. # 3 for O  read from file:
     /opt/QEpot/SSSP_precision_pseudos/O.pbe-n-kjpaw_psl.0.1.UPF
     MD5 check sum: 0234752ac141de4415c5fc33072bef88
     Pseudo is Projector augmented-wave + core cor, Zval =  6.0
     Generated using "atomic" code by A. Dal Corso  v.5.0.99 svn rev. 10869
     Shape of augmentation charge: BESSEL
     Using radial grid of 1095 points,  4 beta functions with: 
                l(1) =   0
                l(2) =   0
                l(3) =   1
                l(4) =   1
     Q(r) pseudized with 0 coefficients 


     PseudoPot. # 4 for P  read from file:
     /opt/QEpot/SSSP_precision_pseudos/P.pbe-n-rrkjus_psl.1.0.0.UPF
     MD5 check sum: 8b930f418f0a4573dca56cd030ffe088
     Pseudo is Ultrasoft + core correction, Zval =  5.0
     Generated using "atomic" code by A. Dal Corso  v.5.1
     Using radial grid of 1147 points,  6 beta functions with: 
                l(1) =   0
                l(2) =   0
                l(3) =   1
                l(4) =   1
                l(5) =   2
                l(6) =   2
     Q(r) pseudized with 0 coefficients 


     atomic species   valence    mass     pseudopotential
        Fe            16.00    55.84500     Fe( 1.00)
        Na             9.00    22.98977     Na( 1.00)
        O              6.00    15.99940     O ( 1.00)
        P              5.00    30.97376     P ( 1.00)

     Starting magnetic structure 
     atomic species   magnetization
        Fe           0.312
        Na           0.000
        O            0.000
        P            0.000

     No symmetry found


                                    s                        frac. trans.

      isym =  1     identity                                     

 cryst.   s( 1) = (     1          0          0      )
                  (     0          1          0      )
                  (     0          0          1      )

 cart.    s( 1) = (  1.0000000  0.0000000  0.0000000 )
                  (  0.0000000  1.0000000  0.0000000 )
                  (  0.0000000  0.0000000  1.0000000 )


   Cartesian axes

     site n.     atom                  positions (alat units)
         1           Na  tau(   1) = (   0.5267800   0.0486677   0.2345267  )
         2           Fe  tau(   2) = (   0.2775050   0.4491175   0.4802512  )
         3           Fe  tau(   3) = (   0.2107690   0.1521034   0.2370222  )
         4           Fe  tau(   4) = (   0.7260420   0.1558891   0.0027034  )
         5           Fe  tau(   5) = (   0.7842060   0.4465013   0.2466972  )
         6           P   tau(   6) = (   0.1068460   0.4500707   0.2148322  )
         7           P   tau(   7) = (   0.3892680   0.1546557   0.4565814  )
         8           P   tau(   8) = (   0.8912160   0.1497698   0.2691507  )
         9           P   tau(   9) = (   0.6066990   0.4490321   0.0271090  )
        10           O   tau(  10) = (   0.1320850   0.4514188   0.3632799  )
        11           O   tau(  11) = (   0.3656990   0.1503321   0.1219382  )
        12           O   tau(  12) = (   0.8700850   0.1505992   0.1201857  )
        13           O   tau(  13) = (   0.6284590   0.4532630   0.3612195  )
        14           O   tau(  14) = (   0.4610830   0.4537817   0.0598059  )
        15           O   tau(  15) = (   0.0360890   0.1490431   0.3013985  )
        16           O   tau(  16) = (   0.5370310   0.1529191   0.4305577  )
        17           O   tau(  17) = (   0.9604850   0.4500229   0.1877503  )
        18           O   tau(  18) = (   0.1771920   0.5657067   0.1445933  )
        19           O   tau(  19) = (   0.3254690   0.0375896   0.3822096  )
        20           O   tau(  20) = (   0.8196290   0.2668030   0.3369429  )
        21           O   tau(  21) = (   0.6770690   0.3323102   0.0949607  )
        22           O   tau(  22) = (   0.8166330   0.0353534   0.3366335  )
        23           O   tau(  23) = (   0.6775470   0.5651378   0.0977327  )
        24           O   tau(  24) = (   0.1757850   0.3327434   0.1460460  )
        25           O   tau(  25) = (   0.3204000   0.2709461   0.3888172  )

   Crystallographic axes

     site n.     atom                  positions (cryst. coord.)
         1           Na  tau(   1) = (  0.5267800  0.0814400  0.4851280  )
         2           Fe  tau(   2) = (  0.2775050  0.7515480  0.9934190  )
         3           Fe  tau(   3) = (  0.2107690  0.2545280  0.4902900  )
         4           Fe  tau(   4) = (  0.7260420  0.2608630  0.0055920  )
         5           Fe  tau(   5) = (  0.7842060  0.7471700  0.5103030  )
         6           P   tau(   6) = (  0.1068460  0.7531430  0.4443890  )
         7           P   tau(   7) = (  0.3892680  0.2587990  0.9444570  )
         8           P   tau(   8) = (  0.8912160  0.2506230  0.5567490  )
         9           P   tau(   9) = (  0.6066990  0.7514050  0.0560760  )
        10           O   tau(  10) = (  0.1320850  0.7553990  0.7514590  )
        11           O   tau(  11) = (  0.3656990  0.2515640  0.2522340  )
        12           O   tau(  12) = (  0.8700850  0.2520110  0.2486090  )
        13           O   tau(  13) = (  0.6284590  0.7584850  0.7471970  )
        14           O   tau(  14) = (  0.4610830  0.7593530  0.1237110  )
        15           O   tau(  15) = (  0.0360890  0.2494070  0.6234550  )
        16           O   tau(  16) = (  0.5370310  0.2558930  0.8906260  )
        17           O   tau(  17) = (  0.9604850  0.7530630  0.3883690  )
        18           O   tau(  18) = (  0.1771920  0.9466470  0.2990970  )
        19           O   tau(  19) = (  0.3254690  0.0629020  0.7906160  )
        20           O   tau(  20) = (  0.8196290  0.4464650  0.6969800  )
        21           O   tau(  21) = (  0.6770690  0.5560840  0.1964300  )
        22           O   tau(  22) = (  0.8166330  0.0591600  0.6963400  )
        23           O   tau(  23) = (  0.6775470  0.9456950  0.2021640  )
        24           O   tau(  24) = (  0.1757850  0.5568090  0.3021020  )
        25           O   tau(  25) = (  0.3204000  0.4533980  0.8042840  )

     number of k points=   158  Marzari-Vanderbilt smearing, width (Ry)=  0.0073
                       cart. coord. in units 2pi/alat
        k(    1) = (   0.0000000   0.0000000   0.0000000), wk =   0.0031746
        k(    2) = (   0.0000000   0.0000000   0.2298378), wk =   0.0063492
        k(    3) = (   0.0000000   0.0000000   0.4596756), wk =   0.0063492
        k(    4) = (   0.0000000   0.0000000   0.6895134), wk =   0.0063492
        k(    5) = (   0.0000000   0.0000000   0.9193512), wk =   0.0063492
        k(    6) = (   0.0000000   0.2390555   0.0000000), wk =   0.0063492
        k(    7) = (   0.0000000   0.2390555   0.2298378), wk =   0.0063492
        k(    8) = (   0.0000000   0.2390555   0.4596756), wk =   0.0063492
        k(    9) = (   0.0000000   0.2390555   0.6895134), wk =   0.0063492
        k(   10) = (   0.0000000   0.2390555   0.9193512), wk =   0.0063492
        k(   11) = (   0.0000000   0.4781110   0.0000000), wk =   0.0063492
        k(   12) = (   0.0000000   0.4781110   0.2298378), wk =   0.0063492
        k(   13) = (   0.0000000   0.4781110   0.4596756), wk =   0.0063492
        k(   14) = (   0.0000000   0.4781110   0.6895134), wk =   0.0063492
        k(   15) = (   0.0000000   0.4781110   0.9193512), wk =   0.0063492
        k(   16) = (   0.0000000   0.7171664   0.0000000), wk =   0.0063492
        k(   17) = (   0.0000000   0.7171664   0.2298378), wk =   0.0063492
        k(   18) = (   0.0000000   0.7171664   0.4596756), wk =   0.0063492
        k(   19) = (   0.0000000   0.7171664   0.6895134), wk =   0.0063492
        k(   20) = (   0.0000000   0.7171664   0.9193512), wk =   0.0063492
        k(   21) = (   0.2000000   0.0000000   0.0000000), wk =   0.0063492
        k(   22) = (   0.2000000   0.0000000   0.2298378), wk =   0.0063492
        k(   23) = (   0.2000000   0.0000000   0.4596756), wk =   0.0063492
        k(   24) = (   0.2000000   0.0000000   0.6895134), wk =   0.0063492
        k(   25) = (   0.2000000   0.0000000   0.9193512), wk =   0.0063492
        k(   26) = (   0.2000000   0.2390555   0.0000000), wk =   0.0063492
        k(   27) = (   0.2000000   0.2390555   0.2298378), wk =   0.0063492
        k(   28) = (   0.2000000   0.2390555   0.4596756), wk =   0.0063492
        k(   29) = (   0.2000000   0.2390555   0.6895134), wk =   0.0063492
        k(   30) = (   0.2000000   0.2390555   0.9193512), wk =   0.0063492
        k(   31) = (   0.2000000   0.4781110   0.0000000), wk =   0.0063492
        k(   32) = (   0.2000000   0.4781110   0.2298378), wk =   0.0063492
        k(   33) = (   0.2000000   0.4781110   0.4596756), wk =   0.0063492
        k(   34) = (   0.2000000   0.4781110   0.6895134), wk =   0.0063492
        k(   35) = (   0.2000000   0.4781110   0.9193512), wk =   0.0063492
        k(   36) = (   0.2000000   0.7171664   0.0000000), wk =   0.0063492
        k(   37) = (   0.2000000   0.7171664   0.2298378), wk =   0.0063492
        k(   38) = (   0.2000000   0.7171664   0.4596756), wk =   0.0063492
        k(   39) = (   0.2000000   0.7171664   0.6895134), wk =   0.0063492
        k(   40) = (   0.2000000   0.7171664   0.9193512), wk =   0.0063492
        k(   41) = (   0.4000000   0.0000000   0.0000000), wk =   0.0063492
        k(   42) = (   0.4000000   0.0000000   0.2298378), wk =   0.0063492
        k(   43) = (   0.4000000   0.0000000   0.4596756), wk =   0.0063492
        k(   44) = (   0.4000000   0.0000000   0.6895134), wk =   0.0063492
        k(   45) = (   0.4000000   0.0000000   0.9193512), wk =   0.0063492
        k(   46) = (   0.4000000   0.2390555   0.0000000), wk =   0.0063492
        k(   47) = (   0.4000000   0.2390555   0.2298378), wk =   0.0063492
        k(   48) = (   0.4000000   0.2390555   0.4596756), wk =   0.0063492
        k(   49) = (   0.4000000   0.2390555   0.6895134), wk =   0.0063492
        k(   50) = (   0.4000000   0.2390555   0.9193512), wk =   0.0063492
        k(   51) = (   0.4000000   0.4781110   0.0000000), wk =   0.0063492
        k(   52) = (   0.4000000   0.4781110   0.2298378), wk =   0.0063492
        k(   53) = (   0.4000000   0.4781110   0.4596756), wk =   0.0063492
        k(   54) = (   0.4000000   0.4781110   0.6895134), wk =   0.0063492
        k(   55) = (   0.4000000   0.4781110   0.9193512), wk =   0.0063492
        k(   56) = (   0.4000000   0.7171664   0.0000000), wk =   0.0063492
        k(   57) = (   0.4000000   0.7171664   0.2298378), wk =   0.0063492
        k(   58) = (   0.4000000   0.7171664   0.4596756), wk =   0.0063492
        k(   59) = (   0.4000000   0.7171664   0.6895134), wk =   0.0063492
        k(   60) = (   0.4000000   0.7171664   0.9193512), wk =   0.0063492
        k(   61) = (   0.0000000  -0.2390555   0.2298378), wk =   0.0063492
        k(   62) = (   0.0000000  -0.2390555   0.4596756), wk =   0.0063492
        k(   63) = (   0.0000000  -0.2390555   0.6895134), wk =   0.0063492
        k(   64) = (   0.0000000  -0.2390555   0.9193512), wk =   0.0063492
        k(   65) = (   0.0000000  -0.4781110   0.2298378), wk =   0.0063492
        k(   66) = (   0.0000000  -0.4781110   0.4596756), wk =   0.0063492
        k(   67) = (   0.0000000  -0.4781110   0.6895134), wk =   0.0063492
        k(   68) = (   0.0000000  -0.4781110   0.9193512), wk =   0.0063492
        k(   69) = (   0.0000000  -0.7171664   0.2298378), wk =   0.0063492
        k(   70) = (   0.0000000  -0.7171664   0.4596756), wk =   0.0063492
        k(   71) = (   0.0000000  -0.7171664   0.6895134), wk =   0.0063492
        k(   72) = (   0.0000000  -0.7171664   0.9193512), wk =   0.0063492
        k(   73) = (  -0.2000000   0.0000000   0.2298378), wk =   0.0063492
        k(   74) = (  -0.2000000   0.0000000   0.4596756), wk =   0.0063492
        k(   75) = (  -0.2000000   0.0000000   0.6895134), wk =   0.0063492
        k(   76) = (  -0.2000000   0.0000000   0.9193512), wk =   0.0063492
        k(   77) = (  -0.2000000   0.2390555   0.0000000), wk =   0.0063492
        k(   78) = (  -0.2000000  -0.2390555   0.2298378), wk =   0.0063492
        k(   79) = (  -0.2000000   0.2390555  -0.2298378), wk =   0.0063492
        k(   80) = (   0.2000000  -0.2390555  -0.2298378), wk =   0.0063492
        k(   81) = (  -0.2000000  -0.2390555   0.4596756), wk =   0.0063492
        k(   82) = (  -0.2000000   0.2390555  -0.4596756), wk =   0.0063492
        k(   83) = (   0.2000000  -0.2390555  -0.4596756), wk =   0.0063492
        k(   84) = (  -0.2000000  -0.2390555   0.6895134), wk =   0.0063492
        k(   85) = (  -0.2000000   0.2390555  -0.6895134), wk =   0.0063492
        k(   86) = (   0.2000000  -0.2390555  -0.6895134), wk =   0.0063492
        k(   87) = (  -0.2000000  -0.2390555   0.9193512), wk =   0.0063492
        k(   88) = (  -0.2000000   0.2390555  -0.9193512), wk =   0.0063492
        k(   89) = (   0.2000000  -0.2390555  -0.9193512), wk =   0.0063492
        k(   90) = (  -0.2000000   0.4781110   0.0000000), wk =   0.0063492
        k(   91) = (  -0.2000000  -0.4781110   0.2298378), wk =   0.0063492
        k(   92) = (  -0.2000000   0.4781110  -0.2298378), wk =   0.0063492
        k(   93) = (   0.2000000  -0.4781110  -0.2298378), wk =   0.0063492
        k(   94) = (  -0.2000000  -0.4781110   0.4596756), wk =   0.0063492
        k(   95) = (  -0.2000000   0.4781110  -0.4596756), wk =   0.0063492
        k(   96) = (   0.2000000  -0.4781110  -0.4596756), wk =   0.0063492
        k(   97) = (  -0.2000000  -0.4781110   0.6895134), wk =   0.0063492
        k(   98) = (  -0.2000000   0.4781110  -0.6895134), wk =   0.0063492
        k(   99) = (   0.2000000  -0.4781110  -0.6895134), wk =   0.0063492
        k(  100) = (  -0.2000000  -0.4781110   0.9193512), wk =   0.0063492
        k(  101) = (  -0.2000000   0.4781110  -0.9193512), wk =   0.0063492
        k(  102) = (   0.2000000  -0.4781110  -0.9193512), wk =   0.0063492
        k(  103) = (  -0.2000000   0.7171664   0.0000000), wk =   0.0063492
        k(  104) = (  -0.2000000  -0.7171664   0.2298378), wk =   0.0063492
        k(  105) = (  -0.2000000   0.7171664  -0.2298378), wk =   0.0063492
        k(  106) = (   0.2000000  -0.7171664  -0.2298378), wk =   0.0063492
        k(  107) = (  -0.2000000  -0.7171664   0.4596756), wk =   0.0063492
        k(  108) = (  -0.2000000   0.7171664  -0.4596756), wk =   0.0063492
        k(  109) = (   0.2000000  -0.7171664  -0.4596756), wk =   0.0063492
        k(  110) = (  -0.2000000  -0.7171664   0.6895134), wk =   0.0063492
        k(  111) = (  -0.2000000   0.7171664  -0.6895134), wk =   0.0063492
        k(  112) = (   0.2000000  -0.7171664  -0.6895134), wk =   0.0063492
        k(  113) = (  -0.2000000  -0.7171664   0.9193512), wk =   0.0063492
        k(  114) = (  -0.2000000   0.7171664  -0.9193512), wk =   0.0063492
        k(  115) = (   0.2000000  -0.7171664  -0.9193512), wk =   0.0063492
        k(  116) = (  -0.4000000   0.0000000   0.2298378), wk =   0.0063492
        k(  117) = (  -0.4000000   0.0000000   0.4596756), wk =   0.0063492
        k(  118) = (  -0.4000000   0.0000000   0.6895134), wk =   0.0063492
        k(  119) = (  -0.4000000   0.0000000   0.9193512), wk =   0.0063492
        k(  120) = (  -0.4000000   0.2390555   0.0000000), wk =   0.0063492
        k(  121) = (  -0.4000000  -0.2390555   0.2298378), wk =   0.0063492
        k(  122) = (  -0.4000000   0.2390555  -0.2298378), wk =   0.0063492
        k(  123) = (   0.4000000  -0.2390555  -0.2298378), wk =   0.0063492
        k(  124) = (  -0.4000000  -0.2390555   0.4596756), wk =   0.0063492
        k(  125) = (  -0.4000000   0.2390555  -0.4596756), wk =   0.0063492
        k(  126) = (   0.4000000  -0.2390555  -0.4596756), wk =   0.0063492
        k(  127) = (  -0.4000000  -0.2390555   0.6895134), wk =   0.0063492
        k(  128) = (  -0.4000000   0.2390555  -0.6895134), wk =   0.0063492
        k(  129) = (   0.4000000  -0.2390555  -0.6895134), wk =   0.0063492
        k(  130) = (  -0.4000000  -0.2390555   0.9193512), wk =   0.0063492
        k(  131) = (  -0.4000000   0.2390555  -0.9193512), wk =   0.0063492
        k(  132) = (   0.4000000  -0.2390555  -0.9193512), wk =   0.0063492
        k(  133) = (  -0.4000000   0.4781110   0.0000000), wk =   0.0063492
        k(  134) = (  -0.4000000  -0.4781110   0.2298378), wk =   0.0063492
        k(  135) = (  -0.4000000   0.4781110  -0.2298378), wk =   0.0063492
        k(  136) = (   0.4000000  -0.4781110  -0.2298378), wk =   0.0063492
        k(  137) = (  -0.4000000  -0.4781110   0.4596756), wk =   0.0063492
        k(  138) = (  -0.4000000   0.4781110  -0.4596756), wk =   0.0063492
        k(  139) = (   0.4000000  -0.4781110  -0.4596756), wk =   0.0063492
        k(  140) = (  -0.4000000  -0.4781110   0.6895134), wk =   0.0063492
        k(  141) = (  -0.4000000   0.4781110  -0.6895134), wk =   0.0063492
        k(  142) = (   0.4000000  -0.4781110  -0.6895134), wk =   0.0063492
        k(  143) = (  -0.4000000  -0.4781110   0.9193512), wk =   0.0063492
        k(  144) = (  -0.4000000   0.4781110  -0.9193512), wk =   0.0063492
        k(  145) = (   0.4000000  -0.4781110  -0.9193512), wk =   0.0063492
        k(  146) = (  -0.4000000   0.7171664   0.0000000), wk =   0.0063492
        k(  147) = (  -0.4000000  -0.7171664   0.2298378), wk =   0.0063492
        k(  148) = (  -0.4000000   0.7171664  -0.2298378), wk =   0.0063492
        k(  149) = (   0.4000000  -0.7171664  -0.2298378), wk =   0.0063492
        k(  150) = (  -0.4000000  -0.7171664   0.4596756), wk =   0.0063492
        k(  151) = (  -0.4000000   0.7171664  -0.4596756), wk =   0.0063492
        k(  152) = (   0.4000000  -0.7171664  -0.4596756), wk =   0.0063492
        k(  153) = (  -0.4000000  -0.7171664   0.6895134), wk =   0.0063492
        k(  154) = (  -0.4000000   0.7171664  -0.6895134), wk =   0.0063492
        k(  155) = (   0.4000000  -0.7171664  -0.6895134), wk =   0.0063492
        k(  156) = (  -0.4000000  -0.7171664   0.9193512), wk =   0.0063492
        k(  157) = (  -0.4000000   0.7171664  -0.9193512), wk =   0.0063492
        k(  158) = (   0.4000000  -0.7171664  -0.9193512), wk =   0.0063492

                       cryst. coord.
        k(    1) = (   0.0000000   0.0000000   0.0000000), wk =   0.0031746
        k(    2) = (   0.0000000   0.0000000   0.1111111), wk =   0.0063492
        k(    3) = (   0.0000000   0.0000000   0.2222222), wk =   0.0063492
        k(    4) = (   0.0000000   0.0000000   0.3333333), wk =   0.0063492
        k(    5) = (   0.0000000   0.0000000   0.4444444), wk =   0.0063492
        k(    6) = (   0.0000000   0.1428571   0.0000000), wk =   0.0063492
        k(    7) = (   0.0000000   0.1428571   0.1111111), wk =   0.0063492
        k(    8) = (   0.0000000   0.1428571   0.2222222), wk =   0.0063492
        k(    9) = (   0.0000000   0.1428571   0.3333333), wk =   0.0063492
        k(   10) = (   0.0000000   0.1428571   0.4444444), wk =   0.0063492
        k(   11) = (   0.0000000   0.2857143   0.0000000), wk =   0.0063492
        k(   12) = (   0.0000000   0.2857143   0.1111111), wk =   0.0063492
        k(   13) = (   0.0000000   0.2857143   0.2222222), wk =   0.0063492
        k(   14) = (   0.0000000   0.2857143   0.3333333), wk =   0.0063492
        k(   15) = (   0.0000000   0.2857143   0.4444444), wk =   0.0063492
        k(   16) = (   0.0000000   0.4285714   0.0000000), wk =   0.0063492
        k(   17) = (   0.0000000   0.4285714   0.1111111), wk =   0.0063492
        k(   18) = (   0.0000000   0.4285714   0.2222222), wk =   0.0063492
        k(   19) = (   0.0000000   0.4285714   0.3333333), wk =   0.0063492
        k(   20) = (   0.0000000   0.4285714   0.4444444), wk =   0.0063492
        k(   21) = (   0.2000000   0.0000000   0.0000000), wk =   0.0063492
        k(   22) = (   0.2000000   0.0000000   0.1111111), wk =   0.0063492
        k(   23) = (   0.2000000   0.0000000   0.2222222), wk =   0.0063492
        k(   24) = (   0.2000000   0.0000000   0.3333333), wk =   0.0063492
        k(   25) = (   0.2000000   0.0000000   0.4444444), wk =   0.0063492
        k(   26) = (   0.2000000   0.1428571   0.0000000), wk =   0.0063492
        k(   27) = (   0.2000000   0.1428571   0.1111111), wk =   0.0063492
        k(   28) = (   0.2000000   0.1428571   0.2222222), wk =   0.0063492
        k(   29) = (   0.2000000   0.1428571   0.3333333), wk =   0.0063492
        k(   30) = (   0.2000000   0.1428571   0.4444444), wk =   0.0063492
        k(   31) = (   0.2000000   0.2857143   0.0000000), wk =   0.0063492
        k(   32) = (   0.2000000   0.2857143   0.1111111), wk =   0.0063492
        k(   33) = (   0.2000000   0.2857143   0.2222222), wk =   0.0063492
        k(   34) = (   0.2000000   0.2857143   0.3333333), wk =   0.0063492
        k(   35) = (   0.2000000   0.2857143   0.4444444), wk =   0.0063492
        k(   36) = (   0.2000000   0.4285714   0.0000000), wk =   0.0063492
        k(   37) = (   0.2000000   0.4285714   0.1111111), wk =   0.0063492
        k(   38) = (   0.2000000   0.4285714   0.2222222), wk =   0.0063492
        k(   39) = (   0.2000000   0.4285714   0.3333333), wk =   0.0063492
        k(   40) = (   0.2000000   0.4285714   0.4444444), wk =   0.0063492
        k(   41) = (   0.4000000   0.0000000   0.0000000), wk =   0.0063492
        k(   42) = (   0.4000000   0.0000000   0.1111111), wk =   0.0063492
        k(   43) = (   0.4000000   0.0000000   0.2222222), wk =   0.0063492
        k(   44) = (   0.4000000   0.0000000   0.3333333), wk =   0.0063492
        k(   45) = (   0.4000000   0.0000000   0.4444444), wk =   0.0063492
        k(   46) = (   0.4000000   0.1428571   0.0000000), wk =   0.0063492
        k(   47) = (   0.4000000   0.1428571   0.1111111), wk =   0.0063492
        k(   48) = (   0.4000000   0.1428571   0.2222222), wk =   0.0063492
        k(   49) = (   0.4000000   0.1428571   0.3333333), wk =   0.0063492
        k(   50) = (   0.4000000   0.1428571   0.4444444), wk =   0.0063492
        k(   51) = (   0.4000000   0.2857143   0.0000000), wk =   0.0063492
        k(   52) = (   0.4000000   0.2857143   0.1111111), wk =   0.0063492
        k(   53) = (   0.4000000   0.2857143   0.2222222), wk =   0.0063492
        k(   54) = (   0.4000000   0.2857143   0.3333333), wk =   0.0063492
        k(   55) = (   0.4000000   0.2857143   0.4444444), wk =   0.0063492
        k(   56) = (   0.4000000   0.4285714   0.0000000), wk =   0.0063492
        k(   57) = (   0.4000000   0.4285714   0.1111111), wk =   0.0063492
        k(   58) = (   0.4000000   0.4285714   0.2222222), wk =   0.0063492
        k(   59) = (   0.4000000   0.4285714   0.3333333), wk =   0.0063492
        k(   60) = (   0.4000000   0.4285714   0.4444444), wk =   0.0063492
        k(   61) = (   0.0000000  -0.1428571   0.1111111), wk =   0.0063492
        k(   62) = (   0.0000000  -0.1428571   0.2222222), wk =   0.0063492
        k(   63) = (   0.0000000  -0.1428571   0.3333333), wk =   0.0063492
        k(   64) = (   0.0000000  -0.1428571   0.4444444), wk =   0.0063492
        k(   65) = (   0.0000000  -0.2857143   0.1111111), wk =   0.0063492
        k(   66) = (   0.0000000  -0.2857143   0.2222222), wk =   0.0063492
        k(   67) = (   0.0000000  -0.2857143   0.3333333), wk =   0.0063492
        k(   68) = (   0.0000000  -0.2857143   0.4444444), wk =   0.0063492
        k(   69) = (   0.0000000  -0.4285714   0.1111111), wk =   0.0063492
        k(   70) = (   0.0000000  -0.4285714   0.2222222), wk =   0.0063492
        k(   71) = (   0.0000000  -0.4285714   0.3333333), wk =   0.0063492
        k(   72) = (   0.0000000  -0.4285714   0.4444444), wk =   0.0063492
        k(   73) = (  -0.2000000   0.0000000   0.1111111), wk =   0.0063492
        k(   74) = (  -0.2000000   0.0000000   0.2222222), wk =   0.0063492
        k(   75) = (  -0.2000000   0.0000000   0.3333333), wk =   0.0063492
        k(   76) = (  -0.2000000   0.0000000   0.4444444), wk =   0.0063492
        k(   77) = (  -0.2000000   0.1428571   0.0000000), wk =   0.0063492
        k(   78) = (  -0.2000000  -0.1428571   0.1111111), wk =   0.0063492
        k(   79) = (  -0.2000000   0.1428571  -0.1111111), wk =   0.0063492
        k(   80) = (   0.2000000  -0.1428571  -0.1111111), wk =   0.0063492
        k(   81) = (  -0.2000000  -0.1428571   0.2222222), wk =   0.0063492
        k(   82) = (  -0.2000000   0.1428571  -0.2222222), wk =   0.0063492
        k(   83) = (   0.2000000  -0.1428571  -0.2222222), wk =   0.0063492
        k(   84) = (  -0.2000000  -0.1428571   0.3333333), wk =   0.0063492
        k(   85) = (  -0.2000000   0.1428571  -0.3333333), wk =   0.0063492
        k(   86) = (   0.2000000  -0.1428571  -0.3333333), wk =   0.0063492
        k(   87) = (  -0.2000000  -0.1428571   0.4444444), wk =   0.0063492
        k(   88) = (  -0.2000000   0.1428571  -0.4444444), wk =   0.0063492
        k(   89) = (   0.2000000  -0.1428571  -0.4444444), wk =   0.0063492
        k(   90) = (  -0.2000000   0.2857143   0.0000000), wk =   0.0063492
        k(   91) = (  -0.2000000  -0.2857143   0.1111111), wk =   0.0063492
        k(   92) = (  -0.2000000   0.2857143  -0.1111111), wk =   0.0063492
        k(   93) = (   0.2000000  -0.2857143  -0.1111111), wk =   0.0063492
        k(   94) = (  -0.2000000  -0.2857143   0.2222222), wk =   0.0063492
        k(   95) = (  -0.2000000   0.2857143  -0.2222222), wk =   0.0063492
        k(   96) = (   0.2000000  -0.2857143  -0.2222222), wk =   0.0063492
        k(   97) = (  -0.2000000  -0.2857143   0.3333333), wk =   0.0063492
        k(   98) = (  -0.2000000   0.2857143  -0.3333333), wk =   0.0063492
        k(   99) = (   0.2000000  -0.2857143  -0.3333333), wk =   0.0063492
        k(  100) = (  -0.2000000  -0.2857143   0.4444444), wk =   0.0063492
        k(  101) = (  -0.2000000   0.2857143  -0.4444444), wk =   0.0063492
        k(  102) = (   0.2000000  -0.2857143  -0.4444444), wk =   0.0063492
        k(  103) = (  -0.2000000   0.4285714   0.0000000), wk =   0.0063492
        k(  104) = (  -0.2000000  -0.4285714   0.1111111), wk =   0.0063492
        k(  105) = (  -0.2000000   0.4285714  -0.1111111), wk =   0.0063492
        k(  106) = (   0.2000000  -0.4285714  -0.1111111), wk =   0.0063492
        k(  107) = (  -0.2000000  -0.4285714   0.2222222), wk =   0.0063492
        k(  108) = (  -0.2000000   0.4285714  -0.2222222), wk =   0.0063492
        k(  109) = (   0.2000000  -0.4285714  -0.2222222), wk =   0.0063492
        k(  110) = (  -0.2000000  -0.4285714   0.3333333), wk =   0.0063492
        k(  111) = (  -0.2000000   0.4285714  -0.3333333), wk =   0.0063492
        k(  112) = (   0.2000000  -0.4285714  -0.3333333), wk =   0.0063492
        k(  113) = (  -0.2000000  -0.4285714   0.4444444), wk =   0.0063492
        k(  114) = (  -0.2000000   0.4285714  -0.4444444), wk =   0.0063492
        k(  115) = (   0.2000000  -0.4285714  -0.4444444), wk =   0.0063492
        k(  116) = (  -0.4000000   0.0000000   0.1111111), wk =   0.0063492
        k(  117) = (  -0.4000000   0.0000000   0.2222222), wk =   0.0063492
        k(  118) = (  -0.4000000   0.0000000   0.3333333), wk =   0.0063492
        k(  119) = (  -0.4000000   0.0000000   0.4444444), wk =   0.0063492
        k(  120) = (  -0.4000000   0.1428571   0.0000000), wk =   0.0063492
        k(  121) = (  -0.4000000  -0.1428571   0.1111111), wk =   0.0063492
        k(  122) = (  -0.4000000   0.1428571  -0.1111111), wk =   0.0063492
        k(  123) = (   0.4000000  -0.1428571  -0.1111111), wk =   0.0063492
        k(  124) = (  -0.4000000  -0.1428571   0.2222222), wk =   0.0063492
        k(  125) = (  -0.4000000   0.1428571  -0.2222222), wk =   0.0063492
        k(  126) = (   0.4000000  -0.1428571  -0.2222222), wk =   0.0063492
        k(  127) = (  -0.4000000  -0.1428571   0.3333333), wk =   0.0063492
        k(  128) = (  -0.4000000   0.1428571  -0.3333333), wk =   0.0063492
        k(  129) = (   0.4000000  -0.1428571  -0.3333333), wk =   0.0063492
        k(  130) = (  -0.4000000  -0.1428571   0.4444444), wk =   0.0063492
        k(  131) = (  -0.4000000   0.1428571  -0.4444444), wk =   0.0063492
        k(  132) = (   0.4000000  -0.1428571  -0.4444444), wk =   0.0063492
        k(  133) = (  -0.4000000   0.2857143   0.0000000), wk =   0.0063492
        k(  134) = (  -0.4000000  -0.2857143   0.1111111), wk =   0.0063492
        k(  135) = (  -0.4000000   0.2857143  -0.1111111), wk =   0.0063492
        k(  136) = (   0.4000000  -0.2857143  -0.1111111), wk =   0.0063492
        k(  137) = (  -0.4000000  -0.2857143   0.2222222), wk =   0.0063492
        k(  138) = (  -0.4000000   0.2857143  -0.2222222), wk =   0.0063492
        k(  139) = (   0.4000000  -0.2857143  -0.2222222), wk =   0.0063492
        k(  140) = (  -0.4000000  -0.2857143   0.3333333), wk =   0.0063492
        k(  141) = (  -0.4000000   0.2857143  -0.3333333), wk =   0.0063492
        k(  142) = (   0.4000000  -0.2857143  -0.3333333), wk =   0.0063492
        k(  143) = (  -0.4000000  -0.2857143   0.4444444), wk =   0.0063492
        k(  144) = (  -0.4000000   0.2857143  -0.4444444), wk =   0.0063492
        k(  145) = (   0.4000000  -0.2857143  -0.4444444), wk =   0.0063492
        k(  146) = (  -0.4000000   0.4285714   0.0000000), wk =   0.0063492
        k(  147) = (  -0.4000000  -0.4285714   0.1111111), wk =   0.0063492
        k(  148) = (  -0.4000000   0.4285714  -0.1111111), wk =   0.0063492
        k(  149) = (   0.4000000  -0.4285714  -0.1111111), wk =   0.0063492
        k(  150) = (  -0.4000000  -0.4285714   0.2222222), wk =   0.0063492
        k(  151) = (  -0.4000000   0.4285714  -0.2222222), wk =   0.0063492
        k(  152) = (   0.4000000  -0.4285714  -0.2222222), wk =   0.0063492
        k(  153) = (  -0.4000000  -0.4285714   0.3333333), wk =   0.0063492
        k(  154) = (  -0.4000000   0.4285714  -0.3333333), wk =   0.0063492
        k(  155) = (   0.4000000  -0.4285714  -0.3333333), wk =   0.0063492
        k(  156) = (  -0.4000000  -0.4285714   0.4444444), wk =   0.0063492
        k(  157) = (  -0.4000000   0.4285714  -0.4444444), wk =   0.0063492
        k(  158) = (   0.4000000  -0.4285714  -0.4444444), wk =   0.0063492

     Dense  grid:  1252071 G-vectors     FFT dimensions: ( 216, 125, 100)

     Smooth grid:   282325 G-vectors     FFT dimensions: ( 125,  75,  60)

     Dynamical RAM for                 wfc:       3.83 MB

     Dynamical RAM for     wfc (w. buffer):    1215.33 MB

     Dynamical RAM for           str. fact:       4.78 MB

     Dynamical RAM for           local pot:       0.00 MB

     Dynamical RAM for          nlocal pot:       9.42 MB

     Dynamical RAM for                qrad:      10.54 MB

     Dynamical RAM for          rho,v,vnew:      15.82 MB

     Dynamical RAM for               rhoin:       5.27 MB

     Dynamical RAM for            rho*nmix:      38.21 MB

     Dynamical RAM for           G-vectors:       4.61 MB

     Dynamical RAM for          h,s,v(r/c):       2.38 MB

     Dynamical RAM for          <psi|beta>:       0.49 MB

     Dynamical RAM for                 psi:       7.67 MB

     Dynamical RAM for                hpsi:       7.67 MB

     Dynamical RAM for                spsi:       7.67 MB

     Dynamical RAM for      wfcinit/wfcrot:       9.65 MB

     Dynamical RAM for           addusdens:     242.40 MB

     Dynamical RAM for          addusforce:     278.35 MB

     Dynamical RAM for         addusstress:     241.80 MB

     Estimated static dynamical RAM per process >       1.29 GB

     Estimated max dynamical RAM per process >       1.56 GB

     Estimated total dynamical RAM >      24.95 GB

     Check: negative core charge=   -0.000003
     Generating pointlists ...
     new r_m :   0.0767 (alat units)  1.4829 (a.u.) for type    1
     new r_m :   0.0904 (alat units)  1.7480 (a.u.) for type    2
     new r_m :   0.0612 (alat units)  1.1839 (a.u.) for type    3
     new r_m :   0.0612 (alat units)  1.1839 (a.u.) for type    4

     Initial potential from superposition of free atoms

     starting charge  188.99132, renormalised to  189.00000
     Starting wfcs are  137 randomized atomic wfcs
     Checking if some PAW data can be deallocated... 
       PAW data deallocated on   13 nodes for type:  1
       PAW data deallocated on    4 nodes for type:  3

     total cpu time spent up to now is      228.3 secs

     Self-consistent Calculation

     iteration #  1     ecut=   100.00 Ry     beta= 0.40
     Davidson diagonalization with overlap
     ethr =  1.00E-02,  avg # of iterations =  3.1

     negative rho (up, down):  0.000E+00 8.760E-05

     total cpu time spent up to now is      955.2 secs

     total energy              =   -2124.02325330 Ry
     estimated scf accuracy    <       6.78320123 Ry

     total magnetization       =    19.00 Bohr mag/cell
     absolute magnetization    =    19.00 Bohr mag/cell

     iteration #  2     ecut=   100.00 Ry     beta= 0.40
     Davidson diagonalization with overlap
     ethr =  3.59E-03,  avg # of iterations =  2.0

     negative rho (up, down):  0.000E+00 3.257E-05

     total cpu time spent up to now is     1609.6 secs

     total energy              =   -2121.35229234 Ry
     estimated scf accuracy    <      34.51196989 Ry

     total magnetization       =     9.16 Bohr mag/cell
     absolute magnetization    =    10.71 Bohr mag/cell

     iteration #  3     ecut=   100.00 Ry     beta= 0.40
     Davidson diagonalization with overlap
     ethr =  3.59E-03,  avg # of iterations =  3.3

     negative rho (up, down):  0.000E+00 1.331E-05

     total cpu time spent up to now is     2202.2 secs

     total energy              =   -2123.29552236 Ry
     estimated scf accuracy    <      79.34764460 Ry

     total magnetization       =     1.00 Bohr mag/cell
     absolute magnetization    =     4.93 Bohr mag/cell

     iteration #  4     ecut=   100.00 Ry     beta= 0.40
     Davidson diagonalization with overlap
     ethr =  3.59E-03,  avg # of iterations =  1.5

     negative rho (up, down):  0.000E+00 5.655E-05

     total cpu time spent up to now is     2718.7 secs

     total energy              =   -2125.53170621 Ry
     estimated scf accuracy    <       5.59010301 Ry

     total magnetization       =    16.44 Bohr mag/cell
     absolute magnetization    =    16.51 Bohr mag/cell

     iteration #  5     ecut=   100.00 Ry     beta= 0.40
     Davidson diagonalization with overlap
     ethr =  2.96E-03,  avg # of iterations =  2.0

     negative rho (up, down):  0.000E+00 1.082E-04

     total cpu time spent up to now is     3272.5 secs

     total energy              =   -2125.61323841 Ry
     estimated scf accuracy    <      12.09334781 Ry

     total magnetization       =    14.33 Bohr mag/cell
     absolute magnetization    =    14.52 Bohr mag/cell

     iteration #  6     ecut=   100.00 Ry     beta= 0.40
     Davidson diagonalization with overlap
     ethr =  2.96E-03,  avg # of iterations =  1.5

     negative rho (up, down):  0.000E+00 2.698E-04

     total cpu time spent up to now is     3778.6 secs

     total energy              =   -2126.10776953 Ry
     estimated scf accuracy    <       0.47412423 Ry

     total magnetization       =    19.00 Bohr mag/cell
     absolute magnetization    =    19.00 Bohr mag/cell

     iteration #  7     ecut=   100.00 Ry     beta= 0.40
     Davidson diagonalization with overlap
     ethr =  2.51E-04,  avg # of iterations =  5.9

     negative rho (up, down):  0.000E+00 3.164E-04

     total cpu time spent up to now is     4412.7 secs

     total energy              =   -2126.10477558 Ry
     estimated scf accuracy    <       0.32388337 Ry

     total magnetization       =    19.00 Bohr mag/cell
     absolute magnetization    =    19.00 Bohr mag/cell

     iteration #  8     ecut=   100.00 Ry     beta= 0.40
     Davidson diagonalization with overlap
     c_bands:  1 eigenvalues not converged
     c_bands:  1 eigenvalues not converged
     ethr =  1.71E-04,  avg # of iterations =  2.2

     negative rho (up, down):  0.000E+00 5.056E-04

     total cpu time spent up to now is     4948.9 secs

     total energy              =   -2126.11068321 Ry
     estimated scf accuracy    <       0.34722925 Ry

     total magnetization       =    19.00 Bohr mag/cell
     absolute magnetization    =    19.00 Bohr mag/cell

     iteration #  9     ecut=   100.00 Ry     beta= 0.40
     Davidson diagonalization with overlap
     ethr =  1.71E-04,  avg # of iterations =  1.4

     negative rho (up, down):  0.000E+00 6.566E-04

     total cpu time spent up to now is     5436.6 secs

     total energy              =   -2126.13558424 Ry
     estimated scf accuracy    <       0.28753078 Ry

     total magnetization       =    19.00 Bohr mag/cell
     absolute magnetization    =    19.01 Bohr mag/cell

     iteration # 10     ecut=   100.00 Ry     beta= 0.40
     Davidson diagonalization with overlap
     ethr =  1.52E-04,  avg # of iterations =  1.1

     negative rho (up, down):  0.000E+00 7.427E-04

     total cpu time spent up to now is     5909.3 secs

     total energy              =   -2126.13685726 Ry
     estimated scf accuracy    <       0.14061145 Ry

     total magnetization       =    19.00 Bohr mag/cell
     absolute magnetization    =    19.01 Bohr mag/cell

     iteration # 11     ecut=   100.00 Ry     beta= 0.40
     Davidson diagonalization with overlap
     c_bands:  1 eigenvalues not converged
     c_bands:  2 eigenvalues not converged
     c_bands:  1 eigenvalues not converged
     c_bands:  1 eigenvalues not converged
     c_bands:  1 eigenvalues not converged
     c_bands:  3 eigenvalues not converged
     ethr =  7.44E-05,  avg # of iterations =  9.7

     negative rho (up, down):  0.000E+00 9.639E-04

     total cpu time spent up to now is     6685.7 secs

     total energy              =   -2126.14148706 Ry
     estimated scf accuracy    <       0.00944886 Ry

     total magnetization       =    19.00 Bohr mag/cell
     absolute magnetization    =    19.02 Bohr mag/cell

     iteration # 12     ecut=   100.00 Ry     beta= 0.40
     Davidson diagonalization with overlap
     c_bands:  1 eigenvalues not converged
     c_bands:  1 eigenvalues not converged
     c_bands:  3 eigenvalues not converged
     c_bands:  1 eigenvalues not converged
     c_bands:  1 eigenvalues not converged
     c_bands:  1 eigenvalues not converged
     c_bands:  1 eigenvalues not converged
     c_bands:  1 eigenvalues not converged
     c_bands:  3 eigenvalues not converged
     c_bands:  2 eigenvalues not converged
     c_bands:  2 eigenvalues not converged
     c_bands:  1 eigenvalues not converged
     c_bands:  1 eigenvalues not converged
     c_bands:  1 eigenvalues not converged
     c_bands:  1 eigenvalues not converged
     c_bands:  1 eigenvalues not converged
     c_bands:  3 eigenvalues not converged
     c_bands:  1 eigenvalues not converged
     c_bands:  1 eigenvalues not converged
     c_bands:  1 eigenvalues not converged
     c_bands:  1 eigenvalues not converged
     c_bands:  1 eigenvalues not converged
     c_bands:  1 eigenvalues not converged
     c_bands:  1 eigenvalues not converged
     c_bands:  1 eigenvalues not converged
     c_bands:  1 eigenvalues not converged
     c_bands:  2 eigenvalues not converged
     c_bands:  2 eigenvalues not converged
     c_bands:  1 eigenvalues not converged
     c_bands:  3 eigenvalues not converged
     c_bands:  1 eigenvalues not converged
     c_bands:  1 eigenvalues not converged
     c_bands:  1 eigenvalues not converged
     c_bands:  1 eigenvalues not converged
     c_bands:  1 eigenvalues not converged
     c_bands:  1 eigenvalues not converged
     c_bands:  2 eigenvalues not converged
     c_bands:  1 eigenvalues not converged
     c_bands:  1 eigenvalues not converged
     c_bands:  1 eigenvalues not converged
     c_bands:  3 eigenvalues not converged
     c_bands:  1 eigenvalues not converged
     c_bands:  1 eigenvalues not converged
     c_bands:  1 eigenvalues not converged
     c_bands:  1 eigenvalues not converged
     c_bands:  1 eigenvalues not converged
     c_bands:  2 eigenvalues not converged
     c_bands:  1 eigenvalues not converged
     c_bands:  1 eigenvalues not converged
     c_bands:  1 eigenvalues not converged
     c_bands:  1 eigenvalues not converged
     c_bands:  1 eigenvalues not converged
     c_bands:  1 eigenvalues not converged
     c_bands:  1 eigenvalues not converged
     c_bands:  1 eigenvalues not converged
     c_bands:  1 eigenvalues not converged
     c_bands:  2 eigenvalues not converged
     c_bands:  1 eigenvalues not converged
     c_bands:  1 eigenvalues not converged
     c_bands:  1 eigenvalues not converged
     c_bands:  2 eigenvalues not converged
     c_bands:  1 eigenvalues not converged
     c_bands:  1 eigenvalues not converged
     c_bands:  1 eigenvalues not converged
     c_bands:  1 eigenvalues not converged
     c_bands:  2 eigenvalues not converged
     c_bands:  1 eigenvalues not converged
     ethr =  5.00E-06,  avg # of iterations = 14.6

     negative rho (up, down):  0.000E+00 9.305E-04

     total cpu time spent up to now is     7867.2 secs

     total energy              =   -2126.14366883 Ry
     estimated scf accuracy    <       0.03112241 Ry

     total magnetization       =    19.00 Bohr mag/cell
     absolute magnetization    =    19.04 Bohr mag/cell

     iteration # 13     ecut=   100.00 Ry     beta= 0.40
     Davidson diagonalization with overlap
     c_bands:  1 eigenvalues not converged
     c_bands:  1 eigenvalues not converged
     c_bands:  1 eigenvalues not converged
     ethr =  5.00E-06,  avg # of iterations =  1.6

     negative rho (up, down):  0.000E+00 9.317E-04

     total cpu time spent up to now is     8351.2 secs

     total energy              =   -2126.14411224 Ry
     estimated scf accuracy    <       0.00269612 Ry

     total magnetization       =    19.00 Bohr mag/cell
     absolute magnetization    =    19.04 Bohr mag/cell

     iteration # 14     ecut=   100.00 Ry     beta= 0.40
     Davidson diagonalization with overlap
     c_bands:  1 eigenvalues not converged
     c_bands:  1 eigenvalues not converged
     c_bands:  1 eigenvalues not converged
     c_bands:  1 eigenvalues not converged
     c_bands:  1 eigenvalues not converged
     c_bands:  1 eigenvalues not converged
     ethr =  1.43E-06,  avg # of iterations =  2.4

     negative rho (up, down):  0.000E+00 9.260E-04

     total cpu time spent up to now is     8888.1 secs

     total energy              =   -2126.14434309 Ry
     estimated scf accuracy    <       0.00099975 Ry

     total magnetization       =    19.00 Bohr mag/cell
     absolute magnetization    =    19.04 Bohr mag/cell

     iteration # 15     ecut=   100.00 Ry     beta= 0.40
     Davidson diagonalization with overlap
     ethr =  5.29E-07,  avg # of iterations =  1.6

     negative rho (up, down):  0.000E+00 9.263E-04

     total cpu time spent up to now is     9399.6 secs

     total energy              =   -2126.14434794 Ry
     estimated scf accuracy    <       0.00204287 Ry

     total magnetization       =    19.00 Bohr mag/cell
     absolute magnetization    =    19.04 Bohr mag/cell

     iteration # 16     ecut=   100.00 Ry     beta= 0.40
     Davidson diagonalization with overlap
     ethr =  5.29E-07,  avg # of iterations =  1.0

     negative rho (up, down):  0.000E+00 9.246E-04

     total cpu time spent up to now is     9861.8 secs

     total energy              =   -2126.14439528 Ry
     estimated scf accuracy    <       0.00005144 Ry

     total magnetization       =    19.00 Bohr mag/cell
     absolute magnetization    =    19.04 Bohr mag/cell

     iteration # 17     ecut=   100.00 Ry     beta= 0.40
     Davidson diagonalization with overlap
     c_bands:  1 eigenvalues not converged
     ethr =  2.72E-08,  avg # of iterations =  4.9

     negative rho (up, down):  0.000E+00 9.217E-04

     total cpu time spent up to now is    10843.3 secs

     total energy              =   -2126.14443188 Ry
     estimated scf accuracy    <       0.00070028 Ry

     total magnetization       =    19.00 Bohr mag/cell
     absolute magnetization    =    19.04 Bohr mag/cell

     iteration # 18     ecut=   100.00 Ry     beta= 0.40
     Davidson diagonalization with overlap
     c_bands:  1 eigenvalues not converged
     ethr =  2.72E-08,  avg # of iterations =  1.1

     negative rho (up, down):  0.000E+00 9.202E-04

     total cpu time spent up to now is    11309.6 secs

     total energy              =   -2126.14443806 Ry
     estimated scf accuracy    <       0.00024583 Ry

     total magnetization       =    19.00 Bohr mag/cell
     absolute magnetization    =    19.04 Bohr mag/cell

     iteration # 19     ecut=   100.00 Ry     beta= 0.40
     Davidson diagonalization with overlap
     ethr =  2.72E-08,  avg # of iterations =  1.0

     negative rho (up, down):  0.000E+00 9.193E-04

     total cpu time spent up to now is    11779.3 secs

     total energy              =   -2126.14443999 Ry
     estimated scf accuracy    <       0.00006738 Ry

     total magnetization       =    19.00 Bohr mag/cell
     absolute magnetization    =    19.04 Bohr mag/cell

     iteration # 20     ecut=   100.00 Ry     beta= 0.40
     Davidson diagonalization with overlap
     ethr =  2.72E-08,  avg # of iterations =  1.0

     negative rho (up, down):  0.000E+00 9.193E-04

     total cpu time spent up to now is    12240.9 secs

     total energy              =   -2126.14444235 Ry
     estimated scf accuracy    <       0.00003003 Ry

     total magnetization       =    19.00 Bohr mag/cell
     absolute magnetization    =    19.04 Bohr mag/cell

     iteration # 21     ecut=   100.00 Ry     beta= 0.40
     Davidson diagonalization with overlap
     ethr =  1.59E-08,  avg # of iterations =  1.0

     negative rho (up, down):  0.000E+00 9.197E-04

     total cpu time spent up to now is    12704.4 secs

     total energy              =   -2126.14444350 Ry
     estimated scf accuracy    <       0.00000668 Ry

     total magnetization       =    19.00 Bohr mag/cell
     absolute magnetization    =    19.04 Bohr mag/cell

     iteration # 22     ecut=   100.00 Ry     beta= 0.40
     Davidson diagonalization with overlap
     ethr =  3.53E-09,  avg # of iterations =  1.9

     negative rho (up, down):  0.000E+00 9.198E-04

     total cpu time spent up to now is    13233.9 secs

     total energy              =   -2126.14444383 Ry
     estimated scf accuracy    <       0.00000916 Ry

     total magnetization       =    19.00 Bohr mag/cell
     absolute magnetization    =    19.04 Bohr mag/cell

     iteration # 23     ecut=   100.00 Ry     beta= 0.40
     Davidson diagonalization with overlap
     ethr =  3.53E-09,  avg # of iterations =  1.0

     negative rho (up, down):  0.000E+00 9.201E-04

     total cpu time spent up to now is    13694.5 secs

     total energy              =   -2126.14444422 Ry
     estimated scf accuracy    <       0.00000126 Ry

     total magnetization       =    19.00 Bohr mag/cell
     absolute magnetization    =    19.04 Bohr mag/cell

     iteration # 24     ecut=   100.00 Ry     beta= 0.40
     Davidson diagonalization with overlap
     ethr =  6.67E-10,  avg # of iterations =  1.9

     negative rho (up, down):  0.000E+00 9.203E-04

     total cpu time spent up to now is    14211.2 secs

     total energy              =   -2126.14444432 Ry
     estimated scf accuracy    <       0.00000044 Ry

     total magnetization       =    19.00 Bohr mag/cell
     absolute magnetization    =    19.04 Bohr mag/cell

     iteration # 25     ecut=   100.00 Ry     beta= 0.40
     Davidson diagonalization with overlap
     ethr =  2.34E-10,  avg # of iterations =  3.0

     negative rho (up, down):  0.000E+00 9.203E-04

     total cpu time spent up to now is    14785.7 secs

     total energy              =   -2126.14444436 Ry
     estimated scf accuracy    <       0.00000018 Ry

     total magnetization       =    19.00 Bohr mag/cell
     absolute magnetization    =    19.04 Bohr mag/cell

     iteration # 26     ecut=   100.00 Ry     beta= 0.40
     Davidson diagonalization with overlap
     ethr =  9.66E-11,  avg # of iterations =  2.8

     negative rho (up, down):  0.000E+00 9.203E-04

     total cpu time spent up to now is    15347.0 secs

     total energy              =   -2126.14444438 Ry
     estimated scf accuracy    <       0.00000004 Ry

     total magnetization       =    19.00 Bohr mag/cell
     absolute magnetization    =    19.04 Bohr mag/cell

     iteration # 27     ecut=   100.00 Ry     beta= 0.40
     Davidson diagonalization with overlap
     ethr =  1.97E-11,  avg # of iterations =  4.2

     negative rho (up, down):  0.000E+00 9.202E-04

     total cpu time spent up to now is    16062.0 secs

     total energy              =   -2126.14444439 Ry
     estimated scf accuracy    <          6.1E-09 Ry

     total magnetization       =    19.00 Bohr mag/cell
     absolute magnetization    =    19.04 Bohr mag/cell

     iteration # 28     ecut=   100.00 Ry     beta= 0.40
     Davidson diagonalization with overlap
     ethr =  3.20E-12,  avg # of iterations =  2.9

     negative rho (up, down):  0.000E+00 9.202E-04

     total cpu time spent up to now is    16687.1 secs

     total energy              =   -2126.14444440 Ry
     estimated scf accuracy    <       0.00000001 Ry

     total magnetization       =    19.00 Bohr mag/cell
     absolute magnetization    =    19.04 Bohr mag/cell

     iteration # 29     ecut=   100.00 Ry     beta= 0.40
     Davidson diagonalization with overlap
     ethr =  3.20E-12,  avg # of iterations =  1.0

     negative rho (up, down):  0.000E+00 9.202E-04

     total cpu time spent up to now is    17146.4 secs

     total energy              =   -2126.14444440 Ry
     estimated scf accuracy    <          6.4E-09 Ry

     total magnetization       =    19.00 Bohr mag/cell
     absolute magnetization    =    19.04 Bohr mag/cell

     iteration # 30     ecut=   100.00 Ry     beta= 0.40
     Davidson diagonalization with overlap
     ethr =  3.20E-12,  avg # of iterations =  1.0

     negative rho (up, down):  0.000E+00 9.202E-04

     total cpu time spent up to now is    17603.8 secs

     total energy              =   -2126.14444440 Ry
     estimated scf accuracy    <          3.2E-10 Ry

     total magnetization       =    19.00 Bohr mag/cell
     absolute magnetization    =    19.04 Bohr mag/cell

     iteration # 31     ecut=   100.00 Ry     beta= 0.40
     Davidson diagonalization with overlap
     ethr =  1.71E-13,  avg # of iterations =  4.2

     negative rho (up, down):  0.000E+00 9.202E-04

     Magnetic moment per site:
     atom:    1    charge:    7.9119    magn:    0.0006    constr:    0.0000
     atom:    2    charge:   12.8168    magn:    3.6450    constr:    0.0000
     atom:    3    charge:   12.8228    magn:    3.6290    constr:    0.0000
     atom:    4    charge:   12.8350    magn:    3.6028    constr:    0.0000
     atom:    5    charge:   12.8242    magn:    3.6284    constr:    0.0000
     atom:    6    charge:    0.8235    magn:    0.0110    constr:    0.0000
     atom:    7    charge:    0.8261    magn:    0.0086    constr:    0.0000
     atom:    8    charge:    0.8248    magn:    0.0113    constr:    0.0000
     atom:    9    charge:    0.8219    magn:    0.0088    constr:    0.0000
     atom:   10    charge:    4.2023    magn:    0.1354    constr:    0.0000
     atom:   11    charge:    4.2146    magn:    0.0861    constr:    0.0000
     atom:   12    charge:    4.2042    magn:    0.1315    constr:    0.0000
     atom:   13    charge:    4.2005    magn:    0.0938    constr:    0.0000
     atom:   14    charge:    4.2083    magn:    0.0985    constr:    0.0000
     atom:   15    charge:    4.2172    magn:    0.1307    constr:    0.0000
     atom:   16    charge:    4.2158    magn:    0.0855    constr:    0.0000
     atom:   17    charge:    4.2154    magn:    0.1370    constr:    0.0000
     atom:   18    charge:    4.1879    magn:    0.1468    constr:    0.0000
     atom:   19    charge:    4.1874    magn:    0.1232    constr:    0.0000
     atom:   20    charge:    4.1933    magn:    0.1521    constr:    0.0000
     atom:   21    charge:    4.1914    magn:    0.1342    constr:    0.0000
     atom:   22    charge:    4.1910    magn:    0.1406    constr:    0.0000
     atom:   23    charge:    4.1955    magn:    0.1191    constr:    0.0000
     atom:   24    charge:    4.1897    magn:    0.1515    constr:    0.0000
     atom:   25    charge:    4.1948    magn:    0.1313    constr:    0.0000

     total cpu time spent up to now is    18326.8 secs

     End of self-consistent calculation

 ------ SPIN UP ------------


          k = 0.0000 0.0000 0.0000 ( 35257 PWs)   bands (ev):

   -84.7541 -84.7106 -84.7024 -84.6022 -50.8842 -50.8633 -50.8582 -50.7994
   -50.7190 -50.6525 -50.6368 -50.6218 -50.6086 -50.5961 -50.5695 -50.4367
   -44.4224 -16.5123 -16.4218 -16.3978 -16.0817 -15.8544 -15.7447 -15.6079
   -13.6119 -13.5383 -13.4330 -13.4142 -13.2869 -13.2440 -13.2246 -13.1948
   -13.1517 -13.0701 -13.0511 -12.9881  -3.8435  -3.3453  -3.2511  -2.8125
    -2.0571  -1.6826  -1.5882  -1.4500  -1.3168  -1.1419  -1.0660  -1.0205
    -0.8648  -0.7213  -0.5001  -0.2105  -0.0431  -0.0339   0.5150   0.5995
     0.6218   0.7515   0.8729   0.9403   1.0479   1.0923   1.2717   1.3572
     1.4798   1.6971   1.7023   1.7659   1.9005   1.9275   1.9558   2.0198
     2.1308   2.3854   2.4431   2.5425   2.5937   2.6193   2.7501   2.8220
     2.9138   3.0129   3.1741   3.2164   3.2324   3.3965   3.5258   3.5424
     3.6035   3.7394   3.7744   3.7981   3.9307   4.0489   4.0694   4.2387
     4.2732   4.5096   4.5265   4.6623   4.8781   5.0070   5.2319   5.3226
     9.6941  11.7492  12.1517  12.5701  12.7807  13.2519  13.7908  13.9704
    14.0515  14.1684

     occupation numbers 
     1.0000   1.0000   1.0000   1.0000   1.0000   1.0000   1.0000   1.0000
     1.0000   1.0000   1.0000   1.0000   1.0000   1.0000   1.0000   1.0000
     1.0000   1.0000   1.0000   1.0000   1.0000   1.0000   1.0000   1.0000
     1.0000   1.0000   1.0000   1.0000   1.0000   1.0000   1.0000   1.0000
     1.0000   1.0000   1.0000   1.0000   1.0000   1.0000   1.0000   1.0000
     1.0000   1.0000   1.0000   1.0000   1.0000   1.0000   1.0000   1.0000
     1.0000   1.0000   1.0000   1.0000   1.0000   1.0000   1.0000   1.0000
     1.0000   1.0000   1.0000   1.0000   1.0000   1.0000   1.0000   1.0000
     1.0000   1.0000   1.0000   1.0000   1.0000   1.0000   1.0000   1.0000
     1.0000   1.0000   1.0000   1.0000   1.0000   1.0000   1.0000   1.0000
     1.0000   1.0000   1.0000   1.0000   1.0000   1.0000   1.0000   1.0000
     1.0000   1.0000   1.0000   1.0000   1.0000   1.0000   1.0000   1.0000
     1.0000   1.0000   1.0000   1.0000   1.0000   1.0000   1.0000   1.0000
     0.0000   0.0000   0.0000   0.0000   0.0000   0.0000   0.0000   0.0000
     0.0000   0.0000

          k = 0.0000 0.0000 0.2298 ( 35253 PWs)   bands (ev):

   -84.7541 -84.7106 -84.7024 -84.6022 -50.8842 -50.8633 -50.8582 -50.7994
   -50.7190 -50.6525 -50.6368 -50.6218 -50.6086 -50.5961 -50.5695 -50.4367
   -44.4224 -16.5137 -16.4215 -16.4048 -16.0577 -15.8488 -15.7380 -15.6101
   -13.6164 -13.5447 -13.4479 -13.4116 -13.2906 -13.2453 -13.2232 -13.1915
   -13.1609 -13.0773 -13.0571 -12.9926  -3.8181  -3.3370  -3.2481  -2.8261
    -2.0066  -1.6560  -1.5917  -1.4362  -1.3101  -1.1729  -1.0616  -0.9560
    -0.8541  -0.6879  -0.5472  -0.1852  -0.0757  -0.0264   0.5265   0.5956
     0.6338   0.7839   0.8548   0.9626   1.0450   1.0635   1.2449   1.3893
     1.4682   1.6748   1.6864   1.7465   1.8711   1.8928   1.9327   1.9759
     2.2421   2.3618   2.4042   2.4875   2.5919   2.6202   2.7069   2.8480
     2.8991   3.0076   3.1538   3.2158   3.3569   3.3953   3.4441   3.5222
     3.6057   3.7000   3.7745   3.8040   3.9070   4.0464   4.1444   4.2471
     4.3051   4.5141   4.5525   4.6595   4.8746   4.9931   5.2051   5.2982
     9.8462  11.8216  12.2209  12.5699  12.8326  13.2217  13.7649  13.8981
    13.9408  14.1433

     occupation numbers 
     1.0000   1.0000   1.0000   1.0000   1.0000   1.0000   1.0000   1.0000
     1.0000   1.0000   1.0000   1.0000   1.0000   1.0000   1.0000   1.0000
     1.0000   1.0000   1.0000   1.0000   1.0000   1.0000   1.0000   1.0000
     1.0000   1.0000   1.0000   1.0000   1.0000   1.0000   1.0000   1.0000
     1.0000   1.0000   1.0000   1.0000   1.0000   1.0000   1.0000   1.0000
     1.0000   1.0000   1.0000   1.0000   1.0000   1.0000   1.0000   1.0000
     1.0000   1.0000   1.0000   1.0000   1.0000   1.0000   1.0000   1.0000
     1.0000   1.0000   1.0000   1.0000   1.0000   1.0000   1.0000   1.0000
     1.0000   1.0000   1.0000   1.0000   1.0000   1.0000   1.0000   1.0000
     1.0000   1.0000   1.0000   1.0000   1.0000   1.0000   1.0000   1.0000
     1.0000   1.0000   1.0000   1.0000   1.0000   1.0000   1.0000   1.0000
     1.0000   1.0000   1.0000   1.0000   1.0000   1.0000   1.0000   1.0000
     1.0000   1.0000   1.0000   1.0000   1.0000   1.0000   1.0000   1.0000
     0.0000   0.0000   0.0000   0.0000   0.0000   0.0000   0.0000   0.0000
     0.0000   0.0000

          k = 0.0000 0.0000 0.4597 ( 35284 PWs)   bands (ev):

   -84.7541 -84.7106 -84.7024 -84.6022 -50.8842 -50.8633 -50.8582 -50.7994
   -50.7190 -50.6525 -50.6368 -50.6218 -50.6086 -50.5961 -50.5695 -50.4367
   -44.4224 -16.5212 -16.4211 -16.4129 -15.9995 -15.8339 -15.7217 -15.6175
   -13.6295 -13.5609 -13.4780 -13.4153 -13.3030 -13.2485 -13.2154 -13.1923
   -13.1701 -13.0961 -13.0728 -13.0050  -3.7453  -3.3253  -3.2350  -2.8761
    -1.8655  -1.6063  -1.5752  -1.4209  -1.2856  -1.1987  -1.0584  -0.8560
    -0.7700  -0.6684  -0.6012  -0.2010  -0.0994   0.0268   0.5573   0.6016
     0.6635   0.8047   0.8822   0.9949   1.0197   1.0371   1.1597   1.4369
     1.4631   1.6080   1.6702   1.7125   1.7675   1.8323   1.8928   1.9267
     2.1293   2.2766   2.4498   2.4873   2.5432   2.5711   2.7200   2.8221
     2.9232   2.9903   3.1631   3.2355   3.2577   3.3917   3.4489   3.4708
     3.5731   3.6661   3.7958   3.8964   3.9384   4.0573   4.2511   4.2560
     4.3965   4.4878   4.6219   4.6757   4.8610   4.9641   5.1241   5.2245
    10.2553  12.0140  12.3951  12.6065  12.9447  13.1892  13.5166  13.7339
    13.8054  13.9173

     occupation numbers 
     1.0000   1.0000   1.0000   1.0000   1.0000   1.0000   1.0000   1.0000
     1.0000   1.0000   1.0000   1.0000   1.0000   1.0000   1.0000   1.0000
     1.0000   1.0000   1.0000   1.0000   1.0000   1.0000   1.0000   1.0000
     1.0000   1.0000   1.0000   1.0000   1.0000   1.0000   1.0000   1.0000
     1.0000   1.0000   1.0000   1.0000   1.0000   1.0000   1.0000   1.0000
     1.0000   1.0000   1.0000   1.0000   1.0000   1.0000   1.0000   1.0000
     1.0000   1.0000   1.0000   1.0000   1.0000   1.0000   1.0000   1.0000
     1.0000   1.0000   1.0000   1.0000   1.0000   1.0000   1.0000   1.0000
     1.0000   1.0000   1.0000   1.0000   1.0000   1.0000   1.0000   1.0000
     1.0000   1.0000   1.0000   1.0000   1.0000   1.0000   1.0000   1.0000
     1.0000   1.0000   1.0000   1.0000   1.0000   1.0000   1.0000   1.0000
     1.0000   1.0000   1.0000   1.0000   1.0000   1.0000   1.0000   1.0000
     1.0000   1.0000   1.0000   1.0000   1.0000   1.0000   1.0000   1.0000
     0.0000   0.0000   0.0000   0.0000   0.0000   0.0000   0.0000   0.0000
     0.0000   0.0000

          k = 0.0000 0.0000 0.6895 ( 35308 PWs)   bands (ev):

   -84.7541 -84.7106 -84.7024 -84.6022 -50.8842 -50.8633 -50.8582 -50.7994
   -50.7190 -50.6525 -50.6368 -50.6218 -50.6086 -50.5961 -50.5695 -50.4367
   -44.4224 -16.5345 -16.4214 -16.4108 -15.9333 -15.8148 -15.7061 -15.6293
   -13.6477 -13.5785 -13.5105 -13.4272 -13.3195 -13.2533 -13.2170 -13.1879
   -13.1571 -13.1177 -13.0954 -13.0215  -3.6359  -3.3369  -3.2067  -2.9631
    -1.7051  -1.5767  -1.5029  -1.4188  -1.2359  -1.1995  -1.0466  -0.8630
    -0.7589  -0.5910  -0.4866  -0.3620   0.0331   0.1376   0.5631   0.6495
     0.7061   0.7698   0.9219   0.9659   0.9856   1.0373   1.1122   1.4066
     1.4723   1.5318   1.5723   1.6636   1.7373   1.7765   1.8398   1.8864
     1.9194   2.1402   2.3634   2.4474   2.5125   2.6992   2.7472   2.8590
     2.9515   2.9944   3.0492   3.0985   3.2649   3.2852   3.3836   3.4639
     3.5619   3.6854   3.9036   3.9953   4.0448   4.1825   4.2585   4.3177
     4.4354   4.5332   4.6648   4.7240   4.8450   4.9339   4.9951   5.1045
    10.8213  12.2671  12.4747  12.7173  12.9921  13.2192  13.3476  13.5223
    13.6112  13.6378

     occupation numbers 
     1.0000   1.0000   1.0000   1.0000   1.0000   1.0000   1.0000   1.0000
     1.0000   1.0000   1.0000   1.0000   1.0000   1.0000   1.0000   1.0000
     1.0000   1.0000   1.0000   1.0000   1.0000   1.0000   1.0000   1.0000
     1.0000   1.0000   1.0000   1.0000   1.0000   1.0000   1.0000   1.0000
     1.0000   1.0000   1.0000   1.0000   1.0000   1.0000   1.0000   1.0000
     1.0000   1.0000   1.0000   1.0000   1.0000   1.0000   1.0000   1.0000
     1.0000   1.0000   1.0000   1.0000   1.0000   1.0000   1.0000   1.0000
     1.0000   1.0000   1.0000   1.0000   1.0000   1.0000   1.0000   1.0000
     1.0000   1.0000   1.0000   1.0000   1.0000   1.0000   1.0000   1.0000
     1.0000   1.0000   1.0000   1.0000   1.0000   1.0000   1.0000   1.0000
     1.0000   1.0000   1.0000   1.0000   1.0000   1.0000   1.0000   1.0000
     1.0000   1.0000   1.0000   1.0000   1.0000   1.0000   1.0000   1.0000
     1.0000   1.0000   1.0000   1.0000   1.0000   1.0000   1.0000   1.0000
     0.0000   0.0000   0.0000   0.0000   0.0000   0.0000   0.0000   0.0000
     0.0000   0.0000

          k = 0.0000 0.0000 0.9194 ( 35336 PWs)   bands (ev):

   -84.7541 -84.7106 -84.7024 -84.6022 -50.8842 -50.8633 -50.8582 -50.7994
   -50.7190 -50.6525 -50.6369 -50.6218 -50.6086 -50.5961 -50.5695 -50.4367
   -44.4224 -16.5445 -16.4212 -16.4063 -15.8882 -15.7974 -15.7028 -15.6382
   -13.6616 -13.5890 -13.5322 -13.4390 -13.3302 -13.2596 -13.2219 -13.1634
   -13.1457 -13.1335 -13.1187 -13.0348  -3.5140  -3.3929  -3.1617  -3.0556
    -1.6303  -1.5610  -1.4340  -1.3946  -1.1885  -1.1356  -1.0600  -1.0052
    -0.6764  -0.5326  -0.4711  -0.3888   0.2308   0.3336   0.4910   0.5931
     0.7302   0.7553   0.8812   0.9052   0.9398   1.0317   1.1804   1.3050
     1.4471   1.4887   1.5364   1.5979   1.6329   1.7106   1.8461   1.8880
     1.9626   2.1145   2.2049   2.3061   2.5496   2.7125   2.8430   2.9158
     2.9463   2.9836   3.0368   3.0447   3.1339   3.1951   3.3788   3.4631
     3.5587   3.6913   4.0029   4.0564   4.0847   4.2545   4.3374   4.3805
     4.4605   4.6648   4.6825   4.7455   4.7894   4.8731   4.9244   4.9705
    11.4485  12.0534  12.5512  12.8698  13.0606  13.1597  13.2932  13.3750
    13.5951  13.6213

     occupation numbers 
     1.0000   1.0000   1.0000   1.0000   1.0000   1.0000   1.0000   1.0000
     1.0000   1.0000   1.0000   1.0000   1.0000   1.0000   1.0000   1.0000
     1.0000   1.0000   1.0000   1.0000   1.0000   1.0000   1.0000   1.0000
     1.0000   1.0000   1.0000   1.0000   1.0000   1.0000   1.0000   1.0000
     1.0000   1.0000   1.0000   1.0000   1.0000   1.0000   1.0000   1.0000
     1.0000   1.0000   1.0000   1.0000   1.0000   1.0000   1.0000   1.0000
     1.0000   1.0000   1.0000   1.0000   1.0000   1.0000   1.0000   1.0000
     1.0000   1.0000   1.0000   1.0000   1.0000   1.0000   1.0000   1.0000
     1.0000   1.0000   1.0000   1.0000   1.0000   1.0000   1.0000   1.0000
     1.0000   1.0000   1.0000   1.0000   1.0000   1.0000   1.0000   1.0000
     1.0000   1.0000   1.0000   1.0000   1.0000   1.0000   1.0000   1.0000
     1.0000   1.0000   1.0000   1.0000   1.0000   1.0000   1.0000   1.0000
     1.0000   1.0000   1.0000   1.0000   1.0000   1.0000   1.0000   1.0000
     0.0000   0.0000   0.0000   0.0000   0.0000   0.0000   0.0000   0.0000
     0.0000   0.0000

          k = 0.0000 0.2391 0.0000 ( 35275 PWs)   bands (ev):

   -84.7541 -84.7106 -84.7024 -84.6022 -50.8842 -50.8633 -50.8582 -50.7994
   -50.7190 -50.6525 -50.6368 -50.6218 -50.6086 -50.5961 -50.5695 -50.4367
   -44.4224 -16.5139 -16.4220 -16.3978 -16.0604 -15.8525 -15.7408 -15.6291
   -13.6164 -13.5374 -13.4396 -13.4151 -13.3314 -13.2417 -13.2172 -13.1833
   -13.1365 -13.0663 -13.0466 -12.9887  -3.8177  -3.3676  -3.2231  -2.8213
    -2.0292  -1.6915  -1.5844  -1.4572  -1.2793  -1.1425  -1.0504  -1.0029
    -0.8260  -0.7192  -0.4689  -0.1899  -0.1148   0.0218   0.5535   0.5916
     0.6488   0.6949   0.7754   0.8630   0.9564   1.1858   1.3162   1.3882
     1.5596   1.6790   1.7186   1.7576   1.7899   1.8446   1.9352   1.9485
     2.1595   2.3980   2.5012   2.5309   2.6141   2.6572   2.7527   2.8073
     2.9587   3.0005   3.0654   3.1107   3.2411   3.4063   3.4954   3.5682
     3.6168   3.6515   3.7331   3.8891   3.9867   4.0433   4.0806   4.2500
     4.2797   4.4767   4.5664   4.6337   4.8393   4.9744   5.3015   5.3326
     9.8508  11.8374  12.2304  12.4896  12.8616  13.3321  13.7366  13.9213
    14.0456  14.1445

     occupation numbers 
     1.0000   1.0000   1.0000   1.0000   1.0000   1.0000   1.0000   1.0000
     1.0000   1.0000   1.0000   1.0000   1.0000   1.0000   1.0000   1.0000
     1.0000   1.0000   1.0000   1.0000   1.0000   1.0000   1.0000   1.0000
     1.0000   1.0000   1.0000   1.0000   1.0000   1.0000   1.0000   1.0000
     1.0000   1.0000   1.0000   1.0000   1.0000   1.0000   1.0000   1.0000
     1.0000   1.0000   1.0000   1.0000   1.0000   1.0000   1.0000   1.0000
     1.0000   1.0000   1.0000   1.0000   1.0000   1.0000   1.0000   1.0000
     1.0000   1.0000   1.0000   1.0000   1.0000   1.0000   1.0000   1.0000
     1.0000   1.0000   1.0000   1.0000   1.0000   1.0000   1.0000   1.0000
     1.0000   1.0000   1.0000   1.0000   1.0000   1.0000   1.0000   1.0000
     1.0000   1.0000   1.0000   1.0000   1.0000   1.0000   1.0000   1.0000
     1.0000   1.0000   1.0000   1.0000   1.0000   1.0000   1.0000   1.0000
     1.0000   1.0000   1.0000   1.0000   1.0000   1.0000   1.0000   1.0000
     0.0000   0.0000   0.0000   0.0000   0.0000   0.0000   0.0000   0.0000
     0.0000   0.0000

          k = 0.0000 0.2391 0.2298 ( 35285 PWs)   bands (ev):

   -84.7541 -84.7106 -84.7024 -84.6022 -50.8842 -50.8633 -50.8582 -50.7994
   -50.7190 -50.6525 -50.6368 -50.6218 -50.6086 -50.5961 -50.5695 -50.4367
   -44.4224 -16.5174 -16.4217 -16.4038 -16.0322 -15.8460 -15.7347 -15.6341
   -13.6208 -13.5456 -13.4545 -13.4123 -13.3321 -13.2443 -13.2176 -13.1875
   -13.1448 -13.0732 -13.0483 -12.9901  -3.7929  -3.3571  -3.2226  -2.8328
    -1.9812  -1.6638  -1.5862  -1.4406  -1.2742  -1.1711  -1.0397  -0.9456
    -0.8110  -0.6966  -0.5195  -0.1812  -0.1287   0.0258   0.5559   0.5799
     0.6486   0.7111   0.8019   0.8758   0.9644   1.1870   1.3433   1.3519
     1.5218   1.6626   1.7225   1.7385   1.7623   1.8203   1.8997   1.9495
     2.2382   2.3966   2.4161   2.5215   2.5990   2.6517   2.6824   2.8422
     2.9020   3.0205   3.0529   3.1872   3.2486   3.4182   3.4251   3.5483
     3.5849   3.6640   3.7556   3.8651   3.9709   4.0522   4.1321   4.2566
     4.3151   4.4812   4.5896   4.6499   4.8181   4.9635   5.2816   5.3145
     9.9967  11.9069  12.3026  12.5228  12.8929  13.2919  13.7217  13.8352
    13.9644  14.0945

     occupation numbers 
     1.0000   1.0000   1.0000   1.0000   1.0000   1.0000   1.0000   1.0000
     1.0000   1.0000   1.0000   1.0000   1.0000   1.0000   1.0000   1.0000
     1.0000   1.0000   1.0000   1.0000   1.0000   1.0000   1.0000   1.0000
     1.0000   1.0000   1.0000   1.0000   1.0000   1.0000   1.0000   1.0000
     1.0000   1.0000   1.0000   1.0000   1.0000   1.0000   1.0000   1.0000
     1.0000   1.0000   1.0000   1.0000   1.0000   1.0000   1.0000   1.0000
     1.0000   1.0000   1.0000   1.0000   1.0000   1.0000   1.0000   1.0000
     1.0000   1.0000   1.0000   1.0000   1.0000   1.0000   1.0000   1.0000
     1.0000   1.0000   1.0000   1.0000   1.0000   1.0000   1.0000   1.0000
     1.0000   1.0000   1.0000   1.0000   1.0000   1.0000   1.0000   1.0000
     1.0000   1.0000   1.0000   1.0000   1.0000   1.0000   1.0000   1.0000
     1.0000   1.0000   1.0000   1.0000   1.0000   1.0000   1.0000   1.0000
     1.0000   1.0000   1.0000   1.0000   1.0000   1.0000   1.0000   1.0000
     0.0000   0.0000   0.0000   0.0000   0.0000   0.0000   0.0000   0.0000
     0.0000   0.0000

          k = 0.0000 0.2391 0.4597 ( 35280 PWs)   bands (ev):

   -84.7541 -84.7106 -84.7024 -84.6022 -50.8842 -50.8633 -50.8582 -50.7994
   -50.7190 -50.6525 -50.6368 -50.6218 -50.6086 -50.5961 -50.5695 -50.4367
   -44.4224 -16.5247 -16.4213 -16.4113 -15.9750 -15.8268 -15.7229 -15.6401
   -13.6333 -13.5628 -13.4829 -13.4160 -13.3382 -13.2597 -13.2243 -13.1867
   -13.1526 -13.0865 -13.0585 -12.9984  -3.7218  -3.3390  -3.2143  -2.8797
    -1.8456  -1.6042  -1.5717  -1.4197  -1.2530  -1.1903  -1.0388  -0.8240
    -0.7585  -0.6451  -0.6112  -0.2494  -0.0818   0.0445   0.5266   0.6104
     0.6749   0.6908   0.8711   0.9363   0.9767   1.1514   1.2626   1.4101
     1.4658   1.6343   1.6492   1.6952   1.7435   1.7865   1.8424   1.9308
     2.1694   2.2652   2.4650   2.5079   2.5379   2.5979   2.6688   2.8260
     2.8782   3.0419   3.1212   3.1976   3.2475   3.2705   3.4135   3.4912
     3.5504   3.6740   3.8175   3.8731   3.9751   4.0941   4.2242   4.2713
     4.3990   4.4724   4.5869   4.7249   4.7711   4.9523   5.2259   5.2640
    10.3921  12.0960  12.4720  12.6280  12.9743  13.2414  13.5134  13.6931
    13.8692  13.9365

     occupation numbers 
     1.0000   1.0000   1.0000   1.0000   1.0000   1.0000   1.0000   1.0000
     1.0000   1.0000   1.0000   1.0000   1.0000   1.0000   1.0000   1.0000
     1.0000   1.0000   1.0000   1.0000   1.0000   1.0000   1.0000   1.0000
     1.0000   1.0000   1.0000   1.0000   1.0000   1.0000   1.0000   1.0000
     1.0000   1.0000   1.0000   1.0000   1.0000   1.0000   1.0000   1.0000
     1.0000   1.0000   1.0000   1.0000   1.0000   1.0000   1.0000   1.0000
     1.0000   1.0000   1.0000   1.0000   1.0000   1.0000   1.0000   1.0000
     1.0000   1.0000   1.0000   1.0000   1.0000   1.0000   1.0000   1.0000
     1.0000   1.0000   1.0000   1.0000   1.0000   1.0000   1.0000   1.0000
     1.0000   1.0000   1.0000   1.0000   1.0000   1.0000   1.0000   1.0000
     1.0000   1.0000   1.0000   1.0000   1.0000   1.0000   1.0000   1.0000
     1.0000   1.0000   1.0000   1.0000   1.0000   1.0000   1.0000   1.0000
     1.0000   1.0000   1.0000   1.0000   1.0000   1.0000   1.0000   1.0000
     0.0000   0.0000   0.0000   0.0000   0.0000   0.0000   0.0000   0.0000
     0.0000   0.0000

          k = 0.0000 0.2391 0.6895 ( 35285 PWs)   bands (ev):

   -84.7541 -84.7106 -84.7024 -84.6022 -50.8842 -50.8633 -50.8582 -50.7994
   -50.7190 -50.6525 -50.6369 -50.6218 -50.6086 -50.5961 -50.5695 -50.4367
   -44.4224 -16.5358 -16.4213 -16.4100 -15.9153 -15.7997 -15.7173 -15.6437
   -13.6515 -13.5804 -13.5148 -13.4269 -13.3475 -13.2754 -13.2411 -13.1702
   -13.1578 -13.0955 -13.0750 -13.0115  -3.6159  -3.3401  -3.1921  -2.9634
    -1.6872  -1.5684  -1.4981  -1.4160  -1.2149  -1.1764  -1.0272  -0.8242
    -0.7530  -0.5944  -0.4879  -0.3763   0.0187   0.1079   0.4815   0.6075
     0.6746   0.7572   0.9055   1.0139   1.0393   1.0959   1.1827   1.3909
     1.4378   1.5318   1.5898   1.6537   1.7401   1.7675   1.7913   1.8934
     1.9174   2.1314   2.3298   2.4760   2.5615   2.6765   2.7032   2.8256
     2.8974   2.9969   3.1114   3.1681   3.1770   3.2615   3.2847   3.4820
     3.5460   3.6538   3.9174   4.0009   4.0265   4.1586   4.2614   4.3022
     4.4305   4.5073   4.5858   4.7029   4.8287   4.9436   5.1403   5.1917
    10.9438  12.3498  12.5595  12.7755  13.0445  13.2647  13.3713  13.5349
    13.6023  13.6705

     occupation numbers 
     1.0000   1.0000   1.0000   1.0000   1.0000   1.0000   1.0000   1.0000
     1.0000   1.0000   1.0000   1.0000   1.0000   1.0000   1.0000   1.0000
     1.0000   1.0000   1.0000   1.0000   1.0000   1.0000   1.0000   1.0000
     1.0000   1.0000   1.0000   1.0000   1.0000   1.0000   1.0000   1.0000
     1.0000   1.0000   1.0000   1.0000   1.0000   1.0000   1.0000   1.0000
     1.0000   1.0000   1.0000   1.0000   1.0000   1.0000   1.0000   1.0000
     1.0000   1.0000   1.0000   1.0000   1.0000   1.0000   1.0000   1.0000
     1.0000   1.0000   1.0000   1.0000   1.0000   1.0000   1.0000   1.0000
     1.0000   1.0000   1.0000   1.0000   1.0000   1.0000   1.0000   1.0000
     1.0000   1.0000   1.0000   1.0000   1.0000   1.0000   1.0000   1.0000
     1.0000   1.0000   1.0000   1.0000   1.0000   1.0000   1.0000   1.0000
     1.0000   1.0000   1.0000   1.0000   1.0000   1.0000   1.0000   1.0000
     1.0000   1.0000   1.0000   1.0000   1.0000   1.0000   1.0000   1.0000
     0.0000   0.0000   0.0000   0.0000   0.0000   0.0000   0.0000   0.0000
     0.0000   0.0000

          k = 0.0000 0.2391 0.9194 ( 35271 PWs)   bands (ev):

   -84.7541 -84.7106 -84.7024 -84.6022 -50.8842 -50.8633 -50.8582 -50.7994
   -50.7190 -50.6525 -50.6369 -50.6218 -50.6086 -50.5961 -50.5695 -50.4367
   -44.4224 -16.5431 -16.4212 -16.4062 -15.8773 -15.7873 -15.7112 -15.6443
   -13.6659 -13.5912 -13.5354 -13.4366 -13.3560 -13.2839 -13.2494 -13.1709
   -13.1402 -13.1052 -13.0858 -13.0241  -3.5000  -3.3833  -3.1551  -3.0514
    -1.6107  -1.5464  -1.4314  -1.3974  -1.1764  -1.1055  -1.0412  -0.9606
    -0.6863  -0.5335  -0.4659  -0.3816   0.1627   0.2502   0.3924   0.4721
     0.7536   0.8604   0.9295   0.9518   1.0106   1.1008   1.2107   1.2755
     1.4302   1.4681   1.5647   1.6119   1.6356   1.7127   1.7909   1.8431
     1.9492   2.1116   2.1666   2.3456   2.5763   2.7001   2.7914   2.8523
     2.9329   2.9761   3.0328   3.0885   3.1451   3.2254   3.3020   3.4664
     3.5473   3.6438   4.0070   4.0232   4.1295   4.2486   4.2987   4.3091
     4.3871   4.5092   4.6225   4.6828   4.8967   4.9456   5.0554   5.1266
    11.5597  12.1601  12.6301  12.9610  13.0971  13.2271  13.3294  13.4271
    13.5080  13.6969

     occupation numbers 
     1.0000   1.0000   1.0000   1.0000   1.0000   1.0000   1.0000   1.0000
     1.0000   1.0000   1.0000   1.0000   1.0000   1.0000   1.0000   1.0000
     1.0000   1.0000   1.0000   1.0000   1.0000   1.0000   1.0000   1.0000
     1.0000   1.0000   1.0000   1.0000   1.0000   1.0000   1.0000   1.0000
     1.0000   1.0000   1.0000   1.0000   1.0000   1.0000   1.0000   1.0000
     1.0000   1.0000   1.0000   1.0000   1.0000   1.0000   1.0000   1.0000
     1.0000   1.0000   1.0000   1.0000   1.0000   1.0000   1.0000   1.0000
     1.0000   1.0000   1.0000   1.0000   1.0000   1.0000   1.0000   1.0000
     1.0000   1.0000   1.0000   1.0000   1.0000   1.0000   1.0000   1.0000
     1.0000   1.0000   1.0000   1.0000   1.0000   1.0000   1.0000   1.0000
     1.0000   1.0000   1.0000   1.0000   1.0000   1.0000   1.0000   1.0000
     1.0000   1.0000   1.0000   1.0000   1.0000   1.0000   1.0000   1.0000
     1.0000   1.0000   1.0000   1.0000   1.0000   1.0000   1.0000   1.0000
     0.0000   0.0000   0.0000   0.0000   0.0000   0.0000   0.0000   0.0000
     0.0000   0.0000

          k = 0.0000 0.4781 0.0000 ( 35227 PWs)   bands (ev):

   -84.7541 -84.7106 -84.7024 -84.6022 -50.8842 -50.8633 -50.8582 -50.7994
   -50.7190 -50.6525 -50.6368 -50.6218 -50.6086 -50.5961 -50.5695 -50.4367
   -44.4224 -16.5172 -16.4225 -16.3977 -16.0026 -15.8487 -15.7336 -15.6849
   -13.6250 -13.5333 -13.4773 -13.4172 -13.3598 -13.2455 -13.2110 -13.1894
   -13.1128 -13.0525 -13.0384 -12.9843  -3.7468  -3.4311  -3.1470  -2.8571
    -1.9557  -1.7174  -1.5726  -1.4720  -1.2203  -1.1396  -0.9999  -0.9189
    -0.7988  -0.6506  -0.4251  -0.2452  -0.0996   0.1071   0.4934   0.5473
     0.6618   0.6794   0.7218   0.7864   0.8344   1.1905   1.3607   1.4835
     1.5009   1.5378   1.6255   1.6932   1.7802   1.7839   1.9479   2.0075
     2.2505   2.3720   2.5012   2.5401   2.6035   2.6635   2.7080   2.7607
[...]
     atom   13 type  3   force =    -0.00791444    0.00052048    0.00085394
     atom   14 type  3   force =    -0.03253694    0.00236896    0.01062145
     atom   15 type  3   force =     0.03260024   -0.00038738    0.01058606
     atom   16 type  3   force =     0.03160410    0.00142214   -0.00888754
     atom   17 type  3   force =    -0.03035773    0.00062758   -0.01010886
     atom   18 type  3   force =     0.01179412    0.02421600   -0.00876723
     atom   19 type  3   force =    -0.01016815   -0.02525021   -0.00902347
     atom   20 type  3   force =    -0.01030001    0.02532630    0.00708287
     atom   21 type  3   force =     0.01047316   -0.02379888    0.00880505
     atom   22 type  3   force =    -0.01234830   -0.02514798    0.00740950
     atom   23 type  3   force =     0.01325649    0.02435953    0.00631981
     atom   24 type  3   force =     0.01191190   -0.02365756   -0.00837043
     atom   25 type  3   force =    -0.01176566    0.02682129   -0.00914770
     The non-local contrib.  to forces
     atom    1 type  2   force =     0.03265145    0.01640717    0.00419145
     atom    2 type  1   force =     0.07814794    0.04724343    0.13898007
     atom    3 type  1   force =     0.06727340   -0.00424539    0.11904087
     atom    4 type  1   force =    -0.12759183   -0.06658272   -0.12452211
     atom    5 type  1   force =    -0.06831423    0.01913859   -0.10775998
     atom    6 type  4   force =    -0.01181646    0.00022737   -0.01139519
     atom    7 type  4   force =     0.02405103   -0.00596693    0.01226296
     atom    8 type  4   force =     0.00080873    0.00957710    0.01317607
     atom    9 type  4   force =     0.00373076   -0.00007209    0.00453430
     atom   10 type  3   force =     0.31003348   -0.02533040   -1.48042221
     atom   11 type  3   force =    -0.13474560   -0.01941211   -1.42545993
     atom   12 type  3   force =    -0.37222318    0.01632751    1.48543215
     atom   13 type  3   force =     0.24098241    0.00438627    1.47003791
     atom   14 type  3   force =     1.21902612   -0.02552416   -0.63841791
     atom   15 type  3   force =    -1.18293557    0.02058458   -0.74349572
     atom   16 type  3   force =    -1.20768212   -0.04697890    0.40655377
     atom   17 type  3   force =     1.16985727   -0.00900119    0.64824974
     atom   18 type  3   force =    -0.54375438   -1.08659107    0.77379190
     atom   19 type  3   force =     0.53829375    1.13892044    0.77026703
     atom   20 type  3   force =     0.52396944   -1.06096350   -0.71256451
     atom   21 type  3   force =    -0.54715067    1.05829425   -0.79542618
     atom   22 type  3   force =     0.59692841    1.09824848   -0.74192991
     atom   23 type  3   force =    -0.67799572   -1.02564580   -0.64372513
     atom   24 type  3   force =    -0.52757354    1.06845439    0.78543916
     atom   25 type  3   force =     0.58187443   -1.08779639    0.85157729
     The ionic contribution  to forces
     atom    1 type  2   force =    -1.58493408    0.40742754    0.38090339
     atom    2 type  1   force =    -1.31217210   -0.52067497   -0.40536286
     atom    3 type  1   force =    -8.69252192    1.14827246   -0.42207366
     atom    4 type  1   force =     3.11951108    1.11303392    0.42052604
     atom    5 type  1   force =     8.75728304   -1.55802210    0.77548128
     atom    6 type  4   force =    -3.62641376   -0.04636506    0.59773310
     atom    7 type  4   force =     0.72311525    1.19562604    1.03146730
     atom    8 type  4   force =     4.53318569   -0.00049383   -0.66900460
     atom    9 type  4   force =    -1.98178577   -1.35513442   -1.13660706
     atom   10 type  3   force =   -10.74188404    0.09179101    2.67028066
     atom   11 type  3   force =     4.84931423    2.08694994    1.27617531
     atom   12 type  3   force =    11.86318313   -0.14772388   -2.76445147
     atom   13 type  3   force =    -7.47780238   -1.97506404   -2.02893798
     atom   14 type  3   force =     0.22446770   -1.80723981    5.16030613
     atom   15 type  3   force =    -2.40205596   -0.13607624    7.00478504
     atom   16 type  3   force =    -1.21979704    2.57115854   -2.95671913
     atom   17 type  3   force =     3.48169448    0.13890782   -6.37654790
     atom   18 type  3   force =    -4.64140553    2.96151836   -3.08967501
     atom   19 type  3   force =    -0.47411148   -3.88686811   -1.67985438
     atom   20 type  3   force =     4.93434068    3.48251642    2.57773577
     atom   21 type  3   force =    -1.81335466   -2.29629216    2.85761566
     atom   22 type  3   force =     5.22416855   -3.60772606    2.91155382
     atom   23 type  3   force =     1.43134057    1.72614695    0.29092951
     atom   24 type  3   force =    -4.24744515   -2.75975393   -3.15136975
     atom   25 type  3   force =     1.07407949    3.17408561   -3.27488921
     The local contribution  to forces
     atom    1 type  2   force =     1.54759168   -0.43771588   -0.38006382
     atom    2 type  1   force =     1.23018878    0.47656358    0.26521585
     atom    3 type  1   force =     8.63188254   -1.14381385    0.30130166
     atom    4 type  1   force =    -2.99148564   -1.04979356   -0.29375439
     atom    5 type  1   force =    -8.69521364    1.54010933   -0.66658054
     atom    6 type  4   force =     3.65181711    0.04722987   -0.56543802
     atom    7 type  4   force =    -0.75282441   -1.19139366   -1.01872798
     atom    8 type  4   force =    -4.54841724   -0.00704593    0.63338988
     atom    9 type  4   force =     1.98965794    1.35588122    1.10823366
     atom   10 type  3   force =    10.42791123   -0.06558251   -1.20564768
     atom   11 type  3   force =    -4.71064069   -2.06649510    0.13503102
     atom   12 type  3   force =   -11.48702564    0.13225947    1.29541361
     atom   13 type  3   force =     7.23157183    1.97123345    0.57252769
     atom   14 type  3   force =    -1.46627320    1.83487922   -4.51720028
     atom   15 type  3   force =     3.60806843    0.11528744   -6.25750251
     atom   16 type  3   force =     2.44944379   -2.52310823    2.54513880
     atom   17 type  3   force =    -4.67244307   -0.12934990    5.72415622
     atom   18 type  3   force =     5.19241047   -1.85975035    2.31393303
     atom   19 type  3   force =    -0.06990772    2.73225728    0.90740100
     atom   20 type  3   force =    -5.46422983   -2.40502140   -1.86435134
     atom   21 type  3   force =     2.36642430    1.22296537   -2.06047587
     atom   22 type  3   force =    -5.82840343    2.49345479   -2.16875013
     atom   23 type  3   force =    -0.74579904   -0.68467740    0.35337729
     atom   24 type  3   force =     4.78255136    1.67649738    2.36451192
     atom   25 type  3   force =    -1.66287868   -2.06839765    2.42174500
     The core correction contribution to forces
     atom    1 type  2   force =     0.00000000    0.00000000    0.00000000
     atom    2 type  1   force =    -0.00121993   -0.00049261   -0.00044649
     atom    3 type  1   force =    -0.00035215    0.00014254    0.00048603
     atom    4 type  1   force =     0.00227568    0.00077561    0.00023982
     atom    5 type  1   force =     0.00041236   -0.00034911   -0.00044488
     atom    6 type  4   force =     0.00078194   -0.00006292   -0.00011449
     atom    7 type  4   force =    -0.00123029    0.00013740   -0.00210278
     atom    8 type  4   force =    -0.00024105   -0.00057779    0.00006476
     atom    9 type  4   force =    -0.00034364    0.00060712    0.00114585
     atom   10 type  3   force =    -0.00328584    0.00022539    0.01291213
     atom   11 type  3   force =     0.00179278    0.00014108    0.01232395
     atom   12 type  3   force =     0.00383571   -0.00016968   -0.01293317
     atom   13 type  3   force =    -0.00267385   -0.00003525   -0.01277138
     atom   14 type  3   force =    -0.00976429    0.00025364    0.00593198
     atom   15 type  3   force =     0.00952589   -0.00018332    0.00680051
     atom   16 type  3   force =     0.00963630    0.00035059   -0.00386062
     atom   17 type  3   force =    -0.00946090    0.00007090   -0.00596796
     atom   18 type  3   force =     0.00454959    0.00903559   -0.00682012
     atom   19 type  3   force =    -0.00444177   -0.00956409   -0.00683438
     atom   20 type  3   force =    -0.00438214    0.00879194    0.00626471
     atom   21 type  3   force =     0.00454915   -0.00876834    0.00708989
     atom   22 type  3   force =    -0.00504380   -0.00912263    0.00653738
     atom   23 type  3   force =     0.00570549    0.00853753    0.00573653
     atom   24 type  3   force =     0.00438513   -0.00885197   -0.00695465
     atom   25 type  3   force =    -0.00483996    0.00893433   -0.00757788
     The Hubbard contrib.    to forces
     atom    1 type  2   force =     0.00000000    0.00000000    0.00000000
     atom    2 type  1   force =     0.00000000    0.00000000    0.00000000
     atom    3 type  1   force =     0.00000000    0.00000000    0.00000000
     atom    4 type  1   force =     0.00000000    0.00000000    0.00000000
     atom    5 type  1   force =     0.00000000    0.00000000    0.00000000
     atom    6 type  4   force =     0.00000000    0.00000000    0.00000000
     atom    7 type  4   force =     0.00000000    0.00000000    0.00000000
     atom    8 type  4   force =     0.00000000    0.00000000    0.00000000
     atom    9 type  4   force =     0.00000000    0.00000000    0.00000000
     atom   10 type  3   force =     0.00000000    0.00000000    0.00000000
     atom   11 type  3   force =     0.00000000    0.00000000    0.00000000
     atom   12 type  3   force =     0.00000000    0.00000000    0.00000000
     atom   13 type  3   force =     0.00000000    0.00000000    0.00000000
     atom   14 type  3   force =     0.00000000    0.00000000    0.00000000
     atom   15 type  3   force =     0.00000000    0.00000000    0.00000000
     atom   16 type  3   force =     0.00000000    0.00000000    0.00000000
     atom   17 type  3   force =     0.00000000    0.00000000    0.00000000
     atom   18 type  3   force =     0.00000000    0.00000000    0.00000000
     atom   19 type  3   force =     0.00000000    0.00000000    0.00000000
     atom   20 type  3   force =     0.00000000    0.00000000    0.00000000
     atom   21 type  3   force =     0.00000000    0.00000000    0.00000000
     atom   22 type  3   force =     0.00000000    0.00000000    0.00000000
     atom   23 type  3   force =     0.00000000    0.00000000    0.00000000
     atom   24 type  3   force =     0.00000000    0.00000000    0.00000000
     atom   25 type  3   force =     0.00000000    0.00000000    0.00000000
     The SCF correction term to forces
     atom    1 type  2   force =     0.00000494    0.00000016   -0.00000016
     atom    2 type  1   force =    -0.00000815   -0.00000044   -0.00000081
     atom    3 type  1   force =    -0.00001132    0.00000031   -0.00000034
     atom    4 type  1   force =     0.00001041    0.00000060    0.00000042
     atom    5 type  1   force =     0.00000843    0.00000036   -0.00000039
     atom    6 type  4   force =    -0.00000565   -0.00000015    0.00000046
     atom    7 type  4   force =     0.00000021   -0.00000000   -0.00000002
     atom    8 type  4   force =     0.00000023   -0.00000010    0.00000000
     atom    9 type  4   force =     0.00000500    0.00000002    0.00000021
     atom   10 type  3   force =    -0.00000859    0.00000003   -0.00000343
     atom   11 type  3   force =    -0.00000116    0.00000003    0.00000165
     atom   12 type  3   force =     0.00000124   -0.00000011    0.00000136
     atom   13 type  3   force =     0.00000739   -0.00000003   -0.00000211
     atom   14 type  3   force =     0.00000658    0.00000000    0.00000172
     atom   15 type  3   force =    -0.00000270    0.00000009   -0.00000107
     atom   16 type  3   force =     0.00000302    0.00000007   -0.00000017
     atom   17 type  3   force =    -0.00000566   -0.00000011    0.00000123
     atom   18 type  3   force =    -0.00000619    0.00000339    0.00000316
     atom   19 type  3   force =    -0.00000108    0.00000420   -0.00000256
     atom   20 type  3   force =     0.00000170    0.00000277   -0.00000157
     atom   21 type  3   force =     0.00000488    0.00000194    0.00000174
     atom   22 type  3   force =     0.00000182   -0.00000262   -0.00000147
     atom   23 type  3   force =     0.00000504   -0.00000181    0.00000179
     atom   24 type  3   force =    -0.00000605   -0.00000349    0.00000308
     atom   25 type  3   force =    -0.00000110   -0.00000468   -0.00000271

     Total force =     0.119067     Total SCF correction =     0.000031


     Computing stress (Cartesian axis) and pressure


     negative rho (up, down):  0.000E+00 9.202E-04
          total   stress  (Ry/bohr**3)                   (kbar)     P=       28.12
   0.00021792  -0.00002480  -0.00003498           32.06       -3.65       -5.15
  -0.00002480   0.00024123   0.00002673           -3.65       35.49        3.93
  -0.00003498   0.00002673   0.00011425           -5.15        3.93       16.81

     kinetic stress (kbar)  27432.43     13.13     -4.08
                               13.13  27648.09      3.39
                               -4.08      3.39  27409.06

     local   stress (kbar)  -4484.08   2518.94   1038.15
                             2518.94 -14662.10   -920.28
                             1038.15   -920.28  -7477.89

     nonloc. stress (kbar)  -6999.10      1.43      0.95
                                1.43  -6940.50     -1.92
                                0.95     -1.92  -6943.69

     hartree stress (kbar)  12905.96  -1018.37   -404.25
                            -1018.37  18438.24    369.07
                             -404.25    369.07  14898.32

     exc-cor stress (kbar)  -2903.78     -1.39     -0.81
                               -1.39  -2911.00      0.44
                               -0.81      0.44  -2908.92

     corecor stress (kbar)  -3223.23      0.54      0.69
                                0.54  -3222.11      0.00
                                0.69      0.00  -3223.40

     ewald   stress (kbar) -22696.14  -1517.93   -635.79
                            -1517.93 -18315.13    553.23
                             -635.79    553.23 -21736.66

     hubbard stress (kbar)      0.00      0.00      0.00
                                0.00      0.00      0.00
                                0.00      0.00      0.00

     DFT-D   stress (kbar)      0.00      0.00      0.00
                                0.00      0.00      0.00
                                0.00      0.00      0.00

     XDM     stress (kbar)      0.00      0.00      0.00
                                0.00      0.00      0.00
                                0.00      0.00      0.00

     dft-nl  stress (kbar)      0.00      0.00      0.00
                                0.00      0.00      0.00
                                0.00      0.00      0.00

     TS-vdW  stress (kbar)      0.00      0.00      0.00
                                0.00      0.00      0.00
                                0.00      0.00      0.00



     init_run     :    222.69s CPU    227.51s WALL (       1 calls)
     electrons    :  17822.88s CPU  18098.59s WALL (       1 calls)
     forces       :    138.55s CPU    141.25s WALL (       1 calls)
     stress       :    826.03s CPU    833.21s WALL (       1 calls)

     Called by init_run:
     wfcinit      :    210.39s CPU    213.86s WALL (       1 calls)
     wfcinit:atom :      3.94s CPU      4.00s WALL (     316 calls)
     wfcinit:wfcr :    195.60s CPU    198.83s WALL (     316 calls)
     potinit      :      4.52s CPU      4.97s WALL (       1 calls)
     hinit0       :      4.37s CPU      4.44s WALL (       1 calls)

     Called by electrons:
     c_bands      :  15746.50s CPU  15944.38s WALL (      31 calls)
     sum_band     :   1943.17s CPU   1990.04s WALL (      31 calls)
     v_of_rho     :     33.21s CPU     35.04s WALL (      32 calls)
     v_h          :      2.00s CPU      2.08s WALL (      32 calls)
     v_xc         :     33.18s CPU     34.99s WALL (      34 calls)
     newd         :     68.69s CPU     88.25s WALL (      32 calls)
     PAW_pot      :     24.42s CPU     24.59s WALL (      32 calls)
     mix_rho      :      7.28s CPU      7.65s WALL (      31 calls)

     Called by c_bands:
     init_us_2    :    302.14s CPU    306.66s WALL (   20540 calls)
     cegterg      :  15278.84s CPU  15418.83s WALL (    9796 calls)

     Called by sum_band:
     sum_band:wei :      0.43s CPU      0.43s WALL (      31 calls)
     sum_band:loo :   1787.79s CPU   1811.72s WALL (      31 calls)
     sum_band:buf :     78.66s CPU     79.75s WALL (    9796 calls)
     sum_band:ini :    145.96s CPU    147.84s WALL (    9796 calls)
     sum_band:cal :    820.97s CPU    832.84s WALL (    9796 calls)
     sum_band:bec :      4.85s CPU      4.94s WALL (    9796 calls)
     addusdens    :    150.53s CPU    173.29s WALL (      31 calls)
     addusd:skk   :      0.99s CPU      1.02s WALL (      93 calls)
     addusd:dgemm :     63.38s CPU     82.41s WALL (     186 calls)
     addusd:qvan2 :     83.80s CPU     84.35s WALL (     186 calls)

     Called by *egterg:
     cdiaghg      :    755.30s CPU    763.56s WALL (   37552 calls)
     cegterg:over :   1434.03s CPU   1453.11s WALL (   27756 calls)
     cegterg:upda :   1003.79s CPU   1009.46s WALL (   27756 calls)
     cegterg:last :   1848.51s CPU   1858.14s WALL (   16440 calls)
     h_psi        :   7492.71s CPU   7571.62s WALL (   37868 calls)
     s_psi        :   1984.68s CPU   1995.28s WALL (   37868 calls)
     g_psi        :     28.30s CPU     28.71s WALL (   27756 calls)

     Called by h_psi:
     h_psi:calbec :   2101.81s CPU   2129.53s WALL (   37868 calls)
     vloc_psi     :   3160.51s CPU   3196.61s WALL (   37868 calls)
     add_vuspsi   :   2067.67s CPU   2079.83s WALL (   37868 calls)

     General routines
     calbec       :   3058.40s CPU   3100.16s WALL (   49244 calls)
     fft          :     28.90s CPU     30.93s WALL (     838 calls)
     ffts         :      0.37s CPU      0.45s WALL (     126 calls)
     fftw         :   3516.79s CPU   3556.78s WALL ( 6163420 calls)
     interpolate  :      2.60s CPU      2.80s WALL (      64 calls)

     Parallel routines
     fft_scatt_xy :    372.06s CPU    375.79s WALL ( 6164384 calls)
     fft_scatt_yz :    914.74s CPU    928.79s WALL ( 6164384 calls)

     PAW routines
     PAW_pot      :     24.42s CPU     24.59s WALL (      32 calls)

     PWSCF        :      5h16m CPU      5h21m WALL


   This run was terminated on:   8:27: 1  16Dec2022            

=------------------------------------------------------------------------------=
   JOB DONE.
=------------------------------------------------------------------------------=
Note: The following floating-point exceptions are signalling: IEEE_UNDERFLOW_FLAG IEEE_DENORMAL
Note: The following floating-point exceptions are signalling: IEEE_INVALID_FLAG IEEE_DENORMAL
Note: The following floating-point exceptions are signalling: IEEE_DENORMAL
Note: The following floating-point exceptions are signalling: IEEE_DENORMAL
Note: The following floating-point exceptions are signalling: IEEE_INVALID_FLAG IEEE_DENORMAL
Note: The following floating-point exceptions are signalling: IEEE_DENORMAL
Note: The following floating-point exceptions are signalling: IEEE_DENORMAL
Note: The following floating-point exceptions are signalling: IEEE_DENORMAL
Note: The following floating-point exceptions are signalling: IEEE_DENORMAL
Note: The following floating-point exceptions are signalling: IEEE_DENORMAL
Note: The following floating-point exceptions are signalling: IEEE_INVALID_FLAG IEEE_DENORMAL
Note: The following floating-point exceptions are signalling: IEEE_DENORMAL
Note: The following floating-point exceptions are signalling: IEEE_INVALID_FLAG IEEE_DENORMAL
