
     Program PWSCF v.6.7MaX starts on 15Dec2022 at 22: 8:48 

     This program is part of the open-source Quantum ESPRESSO suite
     for quantum simulation of materials; please cite
         "P. Giannozzi et al., J. Phys.:Condens. Matter 21 395502 (2009);
         "P. Giannozzi et al., J. Phys.:Condens. Matter 29 465901 (2017);
          URL http://www.quantum-espresso.org", 
     in publications or presentations arising from this work. More details at
     http://www.quantum-espresso.org/quote

     Parallel version (MPI), running on    16 processors

     MPI processes distributed on     1 nodes
     R & G space division:  proc/nbgrp/npool/nimage =      16
     Reading input from scale_1da-04.in

     Current dimensions of program PWSCF are:
     Max number of different atomic species (ntypx) = 10
     Max number of k-points (npk) =  40000
     Max angular momentum in pseudopotentials (lmaxx) =  3
     Message from routine read_pp_mesh:
     mesh size missing, using the one in header
     file Fe.pbe-spn-kjpaw_psl.0.2.1.UPF: wavefunction(s)  3D renormalized
     file O.pbe-n-kjpaw_psl.0.1.UPF: wavefunction(s)  2P renormalized

     Subspace diagonalization in iterative solution of the eigenvalue problem:
     a serial algorithm will be used


     Parallelization info
     --------------------
     sticks:   dense  smooth     PW     G-vecs:    dense   smooth      PW
     Min        1283     474    128                83627    18856    2648
     Max        1284     475    130                83629    18859    2649
     Sum       20531    7599   2057              1338043   301725   42371



     bravais-lattice index     =            0
     lattice parameter (alat)  =      20.3206  a.u.
     unit-cell volume          =    2232.3697 (a.u.)^3
     number of atoms/cell      =           25
     number of atomic types    =            4
     number of electrons       =       189.00
     number of Kohn-Sham states=          114
     kinetic-energy cutoff     =     100.0000  Ry
     charge density cutoff     =    1080.0000  Ry
     scf convergence threshold =      2.0E-10
     mixing beta               =       0.4000
     number of iterations used =            8  plain     mixing
     Exchange-correlation= PBE
                           (   1   4   3   4   0   0   0)

     celldm(1)=  20.320559  celldm(2)=   0.000000  celldm(3)=   0.000000
     celldm(4)=   0.000000  celldm(5)=   0.000000  celldm(6)=   0.000000

     crystal axes: (cart. coord. in units of alat)
               a(1) = (   1.000000   0.000000   0.000000 )  
               a(2) = (   0.000000   0.578313   0.000000 )  
               a(3) = (   0.000000   0.000000   0.460041 )  

     reciprocal axes: (cart. coord. in units 2 pi/alat)
               b(1) = (  1.000000  0.000000  0.000000 )  
               b(2) = (  0.000000  1.729168  0.000000 )  
               b(3) = (  0.000000  0.000000  2.173720 )  


     PseudoPot. # 1 for Fe read from file:
     /opt/QEpot/SSSP_precision_pseudos/Fe.pbe-spn-kjpaw_psl.0.2.1.UPF
     MD5 check sum: e86618425769142926afa95317d90200
     Pseudo is Projector augmented-wave + core cor, Zval = 16.0
     Generated using "atomic" code by A. Dal Corso  v.5.0.99 svn rev. 10869
     Shape of augmentation charge: PSQ
     Using radial grid of 1191 points,  6 beta functions with: 
                l(1) =   0
                l(2) =   0
                l(3) =   1
                l(4) =   1
                l(5) =   2
                l(6) =   2
     Q(r) pseudized with 0 coefficients 


     PseudoPot. # 2 for Na read from file:
     /opt/QEpot/SSSP_precision_pseudos/Na_ONCV_PBE-1.0.oncvpsp.upf
     MD5 check sum: 24a298df0a6742ae313db96548fdb2a4
     Pseudo is Norm-conserving, Zval =  9.0
     Generated using ONCVPSP code by D. R. Hamann
     Using radial grid of 1992 points,  4 beta functions with: 
                l(1) =   0
                l(2) =   0
                l(3) =   1
                l(4) =   1

     PseudoPot. # 3 for O  read from file:
     /opt/QEpot/SSSP_precision_pseudos/O.pbe-n-kjpaw_psl.0.1.UPF
     MD5 check sum: 0234752ac141de4415c5fc33072bef88
     Pseudo is Projector augmented-wave + core cor, Zval =  6.0
     Generated using "atomic" code by A. Dal Corso  v.5.0.99 svn rev. 10869
     Shape of augmentation charge: BESSEL
     Using radial grid of 1095 points,  4 beta functions with: 
                l(1) =   0
                l(2) =   0
                l(3) =   1
                l(4) =   1
     Q(r) pseudized with 0 coefficients 


     PseudoPot. # 4 for P  read from file:
     /opt/QEpot/SSSP_precision_pseudos/P.pbe-n-rrkjus_psl.1.0.0.UPF
     MD5 check sum: 8b930f418f0a4573dca56cd030ffe088
     Pseudo is Ultrasoft + core correction, Zval =  5.0
     Generated using "atomic" code by A. Dal Corso  v.5.1
     Using radial grid of 1147 points,  6 beta functions with: 
                l(1) =   0
                l(2) =   0
                l(3) =   1
                l(4) =   1
                l(5) =   2
                l(6) =   2
     Q(r) pseudized with 0 coefficients 


     atomic species   valence    mass     pseudopotential
        Fe            16.00    55.84500     Fe( 1.00)
        Na             9.00    22.98977     Na( 1.00)
        O              6.00    15.99940     O ( 1.00)
        P              5.00    30.97376     P ( 1.00)

     Starting magnetic structure 
     atomic species   magnetization
        Fe           0.312
        Na           0.000
        O            0.000
        P            0.000

     No symmetry found


                                    s                        frac. trans.

      isym =  1     identity                                     

 cryst.   s( 1) = (     1          0          0      )
                  (     0          1          0      )
                  (     0          0          1      )

 cart.    s( 1) = (  1.0000000  0.0000000  0.0000000 )
                  (  0.0000000  1.0000000  0.0000000 )
                  (  0.0000000  0.0000000  1.0000000 )


   Cartesian axes

     site n.     atom                  positions (alat units)
         1           Na  tau(   1) = (   0.5267800   0.0470978   0.2231787  )
         2           Fe  tau(   2) = (   0.2775050   0.4346298   0.4570133  )
         3           Fe  tau(   3) = (   0.2107690   0.1471968   0.2255534  )
         4           Fe  tau(   4) = (   0.7260420   0.1508604   0.0025725  )
         5           Fe  tau(   5) = (   0.7842060   0.4320980   0.2347602  )
         6           P   tau(   6) = (   0.1068460   0.4355523   0.2044371  )
         7           P   tau(   7) = (   0.3892680   0.1496668   0.4344888  )
         8           P   tau(   8) = (   0.8912160   0.1449385   0.2561273  )
         9           P   tau(   9) = (   0.6066990   0.4345471   0.0257972  )
        10           O   tau(  10) = (   0.1320850   0.4368569   0.3457018  )
        11           O   tau(  11) = (   0.3656990   0.1454827   0.1160379  )
        12           O   tau(  12) = (   0.8700850   0.1457412   0.1143703  )
        13           O   tau(  13) = (   0.6284590   0.4386416   0.3437411  )
        14           O   tau(  14) = (   0.4610830   0.4391436   0.0569121  )
        15           O   tau(  15) = (   0.0360890   0.1442353   0.2868147  )
        16           O   tau(  16) = (   0.5370310   0.1479862   0.4097243  )
        17           O   tau(  17) = (   0.9604850   0.4355060   0.1786656  )
        18           O   tau(  18) = (   0.1771920   0.5474581   0.1375968  )
        19           O   tau(  19) = (   0.3254690   0.0363770   0.3637156  )
        20           O   tau(  20) = (   0.8196290   0.2581964   0.3206392  )
        21           O   tau(  21) = (   0.6770690   0.3215905   0.0903658  )
        22           O   tau(  22) = (   0.8166330   0.0342130   0.3203448  )
        23           O   tau(  23) = (   0.6775470   0.5469075   0.0930037  )
        24           O   tau(  24) = (   0.1757850   0.3220098   0.1389792  )
        25           O   tau(  25) = (   0.3204000   0.2622059   0.3700035  )

   Crystallographic axes

     site n.     atom                  positions (cryst. coord.)
         1           Na  tau(   1) = (  0.5267800  0.0814400  0.4851280  )
         2           Fe  tau(   2) = (  0.2775050  0.7515480  0.9934190  )
         3           Fe  tau(   3) = (  0.2107690  0.2545280  0.4902900  )
         4           Fe  tau(   4) = (  0.7260420  0.2608630  0.0055920  )
         5           Fe  tau(   5) = (  0.7842060  0.7471700  0.5103030  )
         6           P   tau(   6) = (  0.1068460  0.7531430  0.4443890  )
         7           P   tau(   7) = (  0.3892680  0.2587990  0.9444570  )
         8           P   tau(   8) = (  0.8912160  0.2506230  0.5567490  )
         9           P   tau(   9) = (  0.6066990  0.7514050  0.0560760  )
        10           O   tau(  10) = (  0.1320850  0.7553990  0.7514590  )
        11           O   tau(  11) = (  0.3656990  0.2515640  0.2522340  )
        12           O   tau(  12) = (  0.8700850  0.2520110  0.2486090  )
        13           O   tau(  13) = (  0.6284590  0.7584850  0.7471970  )
        14           O   tau(  14) = (  0.4610830  0.7593530  0.1237110  )
        15           O   tau(  15) = (  0.0360890  0.2494070  0.6234550  )
        16           O   tau(  16) = (  0.5370310  0.2558930  0.8906260  )
        17           O   tau(  17) = (  0.9604850  0.7530630  0.3883690  )
        18           O   tau(  18) = (  0.1771920  0.9466470  0.2990970  )
        19           O   tau(  19) = (  0.3254690  0.0629020  0.7906160  )
        20           O   tau(  20) = (  0.8196290  0.4464650  0.6969800  )
        21           O   tau(  21) = (  0.6770690  0.5560840  0.1964300  )
        22           O   tau(  22) = (  0.8166330  0.0591600  0.6963400  )
        23           O   tau(  23) = (  0.6775470  0.9456950  0.2021640  )
        24           O   tau(  24) = (  0.1757850  0.5568090  0.3021020  )
        25           O   tau(  25) = (  0.3204000  0.4533980  0.8042840  )

     number of k points=   158  Marzari-Vanderbilt smearing, width (Ry)=  0.0073
                       cart. coord. in units 2pi/alat
        k(    1) = (   0.0000000   0.0000000   0.0000000), wk =   0.0031746
        k(    2) = (   0.0000000   0.0000000   0.2415245), wk =   0.0063492
        k(    3) = (   0.0000000   0.0000000   0.4830489), wk =   0.0063492
        k(    4) = (   0.0000000   0.0000000   0.7245734), wk =   0.0063492
        k(    5) = (   0.0000000   0.0000000   0.9660979), wk =   0.0063492
        k(    6) = (   0.0000000   0.2470240   0.0000000), wk =   0.0063492
        k(    7) = (   0.0000000   0.2470240   0.2415245), wk =   0.0063492
        k(    8) = (   0.0000000   0.2470240   0.4830489), wk =   0.0063492
        k(    9) = (   0.0000000   0.2470240   0.7245734), wk =   0.0063492
        k(   10) = (   0.0000000   0.2470240   0.9660979), wk =   0.0063492
        k(   11) = (   0.0000000   0.4940480   0.0000000), wk =   0.0063492
        k(   12) = (   0.0000000   0.4940480   0.2415245), wk =   0.0063492
        k(   13) = (   0.0000000   0.4940480   0.4830489), wk =   0.0063492
        k(   14) = (   0.0000000   0.4940480   0.7245734), wk =   0.0063492
        k(   15) = (   0.0000000   0.4940480   0.9660979), wk =   0.0063492
        k(   16) = (   0.0000000   0.7410720   0.0000000), wk =   0.0063492
        k(   17) = (   0.0000000   0.7410720   0.2415245), wk =   0.0063492
        k(   18) = (   0.0000000   0.7410720   0.4830489), wk =   0.0063492
        k(   19) = (   0.0000000   0.7410720   0.7245734), wk =   0.0063492
        k(   20) = (   0.0000000   0.7410720   0.9660979), wk =   0.0063492
        k(   21) = (   0.2000000   0.0000000   0.0000000), wk =   0.0063492
        k(   22) = (   0.2000000   0.0000000   0.2415245), wk =   0.0063492
        k(   23) = (   0.2000000   0.0000000   0.4830489), wk =   0.0063492
        k(   24) = (   0.2000000   0.0000000   0.7245734), wk =   0.0063492
        k(   25) = (   0.2000000   0.0000000   0.9660979), wk =   0.0063492
        k(   26) = (   0.2000000   0.2470240   0.0000000), wk =   0.0063492
        k(   27) = (   0.2000000   0.2470240   0.2415245), wk =   0.0063492
        k(   28) = (   0.2000000   0.2470240   0.4830489), wk =   0.0063492
        k(   29) = (   0.2000000   0.2470240   0.7245734), wk =   0.0063492
        k(   30) = (   0.2000000   0.2470240   0.9660979), wk =   0.0063492
        k(   31) = (   0.2000000   0.4940480   0.0000000), wk =   0.0063492
        k(   32) = (   0.2000000   0.4940480   0.2415245), wk =   0.0063492
        k(   33) = (   0.2000000   0.4940480   0.4830489), wk =   0.0063492
        k(   34) = (   0.2000000   0.4940480   0.7245734), wk =   0.0063492
        k(   35) = (   0.2000000   0.4940480   0.9660979), wk =   0.0063492
        k(   36) = (   0.2000000   0.7410720   0.0000000), wk =   0.0063492
        k(   37) = (   0.2000000   0.7410720   0.2415245), wk =   0.0063492
        k(   38) = (   0.2000000   0.7410720   0.4830489), wk =   0.0063492
        k(   39) = (   0.2000000   0.7410720   0.7245734), wk =   0.0063492
        k(   40) = (   0.2000000   0.7410720   0.9660979), wk =   0.0063492
        k(   41) = (   0.4000000   0.0000000   0.0000000), wk =   0.0063492
        k(   42) = (   0.4000000   0.0000000   0.2415245), wk =   0.0063492
        k(   43) = (   0.4000000   0.0000000   0.4830489), wk =   0.0063492
        k(   44) = (   0.4000000   0.0000000   0.7245734), wk =   0.0063492
        k(   45) = (   0.4000000   0.0000000   0.9660979), wk =   0.0063492
        k(   46) = (   0.4000000   0.2470240   0.0000000), wk =   0.0063492
        k(   47) = (   0.4000000   0.2470240   0.2415245), wk =   0.0063492
        k(   48) = (   0.4000000   0.2470240   0.4830489), wk =   0.0063492
        k(   49) = (   0.4000000   0.2470240   0.7245734), wk =   0.0063492
        k(   50) = (   0.4000000   0.2470240   0.9660979), wk =   0.0063492
        k(   51) = (   0.4000000   0.4940480   0.0000000), wk =   0.0063492
        k(   52) = (   0.4000000   0.4940480   0.2415245), wk =   0.0063492
        k(   53) = (   0.4000000   0.4940480   0.4830489), wk =   0.0063492
        k(   54) = (   0.4000000   0.4940480   0.7245734), wk =   0.0063492
        k(   55) = (   0.4000000   0.4940480   0.9660979), wk =   0.0063492
        k(   56) = (   0.4000000   0.7410720   0.0000000), wk =   0.0063492
        k(   57) = (   0.4000000   0.7410720   0.2415245), wk =   0.0063492
        k(   58) = (   0.4000000   0.7410720   0.4830489), wk =   0.0063492
        k(   59) = (   0.4000000   0.7410720   0.7245734), wk =   0.0063492
        k(   60) = (   0.4000000   0.7410720   0.9660979), wk =   0.0063492
        k(   61) = (   0.0000000  -0.2470240   0.2415245), wk =   0.0063492
        k(   62) = (   0.0000000  -0.2470240   0.4830489), wk =   0.0063492
        k(   63) = (   0.0000000  -0.2470240   0.7245734), wk =   0.0063492
        k(   64) = (   0.0000000  -0.2470240   0.9660979), wk =   0.0063492
        k(   65) = (   0.0000000  -0.4940480   0.2415245), wk =   0.0063492
        k(   66) = (   0.0000000  -0.4940480   0.4830489), wk =   0.0063492
        k(   67) = (   0.0000000  -0.4940480   0.7245734), wk =   0.0063492
        k(   68) = (   0.0000000  -0.4940480   0.9660979), wk =   0.0063492
        k(   69) = (   0.0000000  -0.7410720   0.2415245), wk =   0.0063492
        k(   70) = (   0.0000000  -0.7410720   0.4830489), wk =   0.0063492
        k(   71) = (   0.0000000  -0.7410720   0.7245734), wk =   0.0063492
        k(   72) = (   0.0000000  -0.7410720   0.9660979), wk =   0.0063492
        k(   73) = (  -0.2000000   0.0000000   0.2415245), wk =   0.0063492
        k(   74) = (  -0.2000000   0.0000000   0.4830489), wk =   0.0063492
        k(   75) = (  -0.2000000   0.0000000   0.7245734), wk =   0.0063492
        k(   76) = (  -0.2000000   0.0000000   0.9660979), wk =   0.0063492
        k(   77) = (  -0.2000000   0.2470240   0.0000000), wk =   0.0063492
        k(   78) = (  -0.2000000  -0.2470240   0.2415245), wk =   0.0063492
        k(   79) = (  -0.2000000   0.2470240  -0.2415245), wk =   0.0063492
        k(   80) = (   0.2000000  -0.2470240  -0.2415245), wk =   0.0063492
        k(   81) = (  -0.2000000  -0.2470240   0.4830489), wk =   0.0063492
        k(   82) = (  -0.2000000   0.2470240  -0.4830489), wk =   0.0063492
        k(   83) = (   0.2000000  -0.2470240  -0.4830489), wk =   0.0063492
        k(   84) = (  -0.2000000  -0.2470240   0.7245734), wk =   0.0063492
        k(   85) = (  -0.2000000   0.2470240  -0.7245734), wk =   0.0063492
        k(   86) = (   0.2000000  -0.2470240  -0.7245734), wk =   0.0063492
        k(   87) = (  -0.2000000  -0.2470240   0.9660979), wk =   0.0063492
        k(   88) = (  -0.2000000   0.2470240  -0.9660979), wk =   0.0063492
        k(   89) = (   0.2000000  -0.2470240  -0.9660979), wk =   0.0063492
        k(   90) = (  -0.2000000   0.4940480   0.0000000), wk =   0.0063492
        k(   91) = (  -0.2000000  -0.4940480   0.2415245), wk =   0.0063492
        k(   92) = (  -0.2000000   0.4940480  -0.2415245), wk =   0.0063492
        k(   93) = (   0.2000000  -0.4940480  -0.2415245), wk =   0.0063492
        k(   94) = (  -0.2000000  -0.4940480   0.4830489), wk =   0.0063492
        k(   95) = (  -0.2000000   0.4940480  -0.4830489), wk =   0.0063492
        k(   96) = (   0.2000000  -0.4940480  -0.4830489), wk =   0.0063492
        k(   97) = (  -0.2000000  -0.4940480   0.7245734), wk =   0.0063492
        k(   98) = (  -0.2000000   0.4940480  -0.7245734), wk =   0.0063492
        k(   99) = (   0.2000000  -0.4940480  -0.7245734), wk =   0.0063492
        k(  100) = (  -0.2000000  -0.4940480   0.9660979), wk =   0.0063492
        k(  101) = (  -0.2000000   0.4940480  -0.9660979), wk =   0.0063492
        k(  102) = (   0.2000000  -0.4940480  -0.9660979), wk =   0.0063492
        k(  103) = (  -0.2000000   0.7410720   0.0000000), wk =   0.0063492
        k(  104) = (  -0.2000000  -0.7410720   0.2415245), wk =   0.0063492
        k(  105) = (  -0.2000000   0.7410720  -0.2415245), wk =   0.0063492
        k(  106) = (   0.2000000  -0.7410720  -0.2415245), wk =   0.0063492
        k(  107) = (  -0.2000000  -0.7410720   0.4830489), wk =   0.0063492
        k(  108) = (  -0.2000000   0.7410720  -0.4830489), wk =   0.0063492
        k(  109) = (   0.2000000  -0.7410720  -0.4830489), wk =   0.0063492
        k(  110) = (  -0.2000000  -0.7410720   0.7245734), wk =   0.0063492
        k(  111) = (  -0.2000000   0.7410720  -0.7245734), wk =   0.0063492
        k(  112) = (   0.2000000  -0.7410720  -0.7245734), wk =   0.0063492
        k(  113) = (  -0.2000000  -0.7410720   0.9660979), wk =   0.0063492
        k(  114) = (  -0.2000000   0.7410720  -0.9660979), wk =   0.0063492
        k(  115) = (   0.2000000  -0.7410720  -0.9660979), wk =   0.0063492
        k(  116) = (  -0.4000000   0.0000000   0.2415245), wk =   0.0063492
        k(  117) = (  -0.4000000   0.0000000   0.4830489), wk =   0.0063492
        k(  118) = (  -0.4000000   0.0000000   0.7245734), wk =   0.0063492
        k(  119) = (  -0.4000000   0.0000000   0.9660979), wk =   0.0063492
        k(  120) = (  -0.4000000   0.2470240   0.0000000), wk =   0.0063492
        k(  121) = (  -0.4000000  -0.2470240   0.2415245), wk =   0.0063492
        k(  122) = (  -0.4000000   0.2470240  -0.2415245), wk =   0.0063492
        k(  123) = (   0.4000000  -0.2470240  -0.2415245), wk =   0.0063492
        k(  124) = (  -0.4000000  -0.2470240   0.4830489), wk =   0.0063492
        k(  125) = (  -0.4000000   0.2470240  -0.4830489), wk =   0.0063492
        k(  126) = (   0.4000000  -0.2470240  -0.4830489), wk =   0.0063492
        k(  127) = (  -0.4000000  -0.2470240   0.7245734), wk =   0.0063492
        k(  128) = (  -0.4000000   0.2470240  -0.7245734), wk =   0.0063492
        k(  129) = (   0.4000000  -0.2470240  -0.7245734), wk =   0.0063492
        k(  130) = (  -0.4000000  -0.2470240   0.9660979), wk =   0.0063492
        k(  131) = (  -0.4000000   0.2470240  -0.9660979), wk =   0.0063492
        k(  132) = (   0.4000000  -0.2470240  -0.9660979), wk =   0.0063492
        k(  133) = (  -0.4000000   0.4940480   0.0000000), wk =   0.0063492
        k(  134) = (  -0.4000000  -0.4940480   0.2415245), wk =   0.0063492
        k(  135) = (  -0.4000000   0.4940480  -0.2415245), wk =   0.0063492
        k(  136) = (   0.4000000  -0.4940480  -0.2415245), wk =   0.0063492
        k(  137) = (  -0.4000000  -0.4940480   0.4830489), wk =   0.0063492
        k(  138) = (  -0.4000000   0.4940480  -0.4830489), wk =   0.0063492
        k(  139) = (   0.4000000  -0.4940480  -0.4830489), wk =   0.0063492
        k(  140) = (  -0.4000000  -0.4940480   0.7245734), wk =   0.0063492
        k(  141) = (  -0.4000000   0.4940480  -0.7245734), wk =   0.0063492
        k(  142) = (   0.4000000  -0.4940480  -0.7245734), wk =   0.0063492
        k(  143) = (  -0.4000000  -0.4940480   0.9660979), wk =   0.0063492
        k(  144) = (  -0.4000000   0.4940480  -0.9660979), wk =   0.0063492
        k(  145) = (   0.4000000  -0.4940480  -0.9660979), wk =   0.0063492
        k(  146) = (  -0.4000000   0.7410720   0.0000000), wk =   0.0063492
        k(  147) = (  -0.4000000  -0.7410720   0.2415245), wk =   0.0063492
        k(  148) = (  -0.4000000   0.7410720  -0.2415245), wk =   0.0063492
        k(  149) = (   0.4000000  -0.7410720  -0.2415245), wk =   0.0063492
        k(  150) = (  -0.4000000  -0.7410720   0.4830489), wk =   0.0063492
        k(  151) = (  -0.4000000   0.7410720  -0.4830489), wk =   0.0063492
        k(  152) = (   0.4000000  -0.7410720  -0.4830489), wk =   0.0063492
        k(  153) = (  -0.4000000  -0.7410720   0.7245734), wk =   0.0063492
        k(  154) = (  -0.4000000   0.7410720  -0.7245734), wk =   0.0063492
        k(  155) = (   0.4000000  -0.7410720  -0.7245734), wk =   0.0063492
        k(  156) = (  -0.4000000  -0.7410720   0.9660979), wk =   0.0063492
        k(  157) = (  -0.4000000   0.7410720  -0.9660979), wk =   0.0063492
        k(  158) = (   0.4000000  -0.7410720  -0.9660979), wk =   0.0063492

                       cryst. coord.
        k(    1) = (   0.0000000   0.0000000   0.0000000), wk =   0.0031746
        k(    2) = (   0.0000000   0.0000000   0.1111111), wk =   0.0063492
        k(    3) = (   0.0000000   0.0000000   0.2222222), wk =   0.0063492
        k(    4) = (   0.0000000   0.0000000   0.3333333), wk =   0.0063492
        k(    5) = (   0.0000000   0.0000000   0.4444444), wk =   0.0063492
        k(    6) = (   0.0000000   0.1428571   0.0000000), wk =   0.0063492
        k(    7) = (   0.0000000   0.1428571   0.1111111), wk =   0.0063492
        k(    8) = (   0.0000000   0.1428571   0.2222222), wk =   0.0063492
        k(    9) = (   0.0000000   0.1428571   0.3333333), wk =   0.0063492
        k(   10) = (   0.0000000   0.1428571   0.4444444), wk =   0.0063492
        k(   11) = (   0.0000000   0.2857143   0.0000000), wk =   0.0063492
        k(   12) = (   0.0000000   0.2857143   0.1111111), wk =   0.0063492
        k(   13) = (   0.0000000   0.2857143   0.2222222), wk =   0.0063492
        k(   14) = (   0.0000000   0.2857143   0.3333333), wk =   0.0063492
        k(   15) = (   0.0000000   0.2857143   0.4444444), wk =   0.0063492
        k(   16) = (   0.0000000   0.4285714   0.0000000), wk =   0.0063492
        k(   17) = (   0.0000000   0.4285714   0.1111111), wk =   0.0063492
        k(   18) = (   0.0000000   0.4285714   0.2222222), wk =   0.0063492
        k(   19) = (   0.0000000   0.4285714   0.3333333), wk =   0.0063492
        k(   20) = (   0.0000000   0.4285714   0.4444444), wk =   0.0063492
        k(   21) = (   0.2000000   0.0000000   0.0000000), wk =   0.0063492
        k(   22) = (   0.2000000   0.0000000   0.1111111), wk =   0.0063492
        k(   23) = (   0.2000000   0.0000000   0.2222222), wk =   0.0063492
        k(   24) = (   0.2000000   0.0000000   0.3333333), wk =   0.0063492
        k(   25) = (   0.2000000   0.0000000   0.4444444), wk =   0.0063492
        k(   26) = (   0.2000000   0.1428571   0.0000000), wk =   0.0063492
        k(   27) = (   0.2000000   0.1428571   0.1111111), wk =   0.0063492
        k(   28) = (   0.2000000   0.1428571   0.2222222), wk =   0.0063492
        k(   29) = (   0.2000000   0.1428571   0.3333333), wk =   0.0063492
        k(   30) = (   0.2000000   0.1428571   0.4444444), wk =   0.0063492
        k(   31) = (   0.2000000   0.2857143   0.0000000), wk =   0.0063492
        k(   32) = (   0.2000000   0.2857143   0.1111111), wk =   0.0063492
        k(   33) = (   0.2000000   0.2857143   0.2222222), wk =   0.0063492
        k(   34) = (   0.2000000   0.2857143   0.3333333), wk =   0.0063492
        k(   35) = (   0.2000000   0.2857143   0.4444444), wk =   0.0063492
        k(   36) = (   0.2000000   0.4285714   0.0000000), wk =   0.0063492
        k(   37) = (   0.2000000   0.4285714   0.1111111), wk =   0.0063492
        k(   38) = (   0.2000000   0.4285714   0.2222222), wk =   0.0063492
        k(   39) = (   0.2000000   0.4285714   0.3333333), wk =   0.0063492
        k(   40) = (   0.2000000   0.4285714   0.4444444), wk =   0.0063492
        k(   41) = (   0.4000000   0.0000000   0.0000000), wk =   0.0063492
        k(   42) = (   0.4000000   0.0000000   0.1111111), wk =   0.0063492
        k(   43) = (   0.4000000   0.0000000   0.2222222), wk =   0.0063492
        k(   44) = (   0.4000000   0.0000000   0.3333333), wk =   0.0063492
        k(   45) = (   0.4000000   0.0000000   0.4444444), wk =   0.0063492
        k(   46) = (   0.4000000   0.1428571   0.0000000), wk =   0.0063492
        k(   47) = (   0.4000000   0.1428571   0.1111111), wk =   0.0063492
        k(   48) = (   0.4000000   0.1428571   0.2222222), wk =   0.0063492
        k(   49) = (   0.4000000   0.1428571   0.3333333), wk =   0.0063492
        k(   50) = (   0.4000000   0.1428571   0.4444444), wk =   0.0063492
        k(   51) = (   0.4000000   0.2857143   0.0000000), wk =   0.0063492
        k(   52) = (   0.4000000   0.2857143   0.1111111), wk =   0.0063492
        k(   53) = (   0.4000000   0.2857143   0.2222222), wk =   0.0063492
        k(   54) = (   0.4000000   0.2857143   0.3333333), wk =   0.0063492
        k(   55) = (   0.4000000   0.2857143   0.4444444), wk =   0.0063492
        k(   56) = (   0.4000000   0.4285714   0.0000000), wk =   0.0063492
        k(   57) = (   0.4000000   0.4285714   0.1111111), wk =   0.0063492
        k(   58) = (   0.4000000   0.4285714   0.2222222), wk =   0.0063492
        k(   59) = (   0.4000000   0.4285714   0.3333333), wk =   0.0063492
        k(   60) = (   0.4000000   0.4285714   0.4444444), wk =   0.0063492
        k(   61) = (   0.0000000  -0.1428571   0.1111111), wk =   0.0063492
        k(   62) = (   0.0000000  -0.1428571   0.2222222), wk =   0.0063492
        k(   63) = (   0.0000000  -0.1428571   0.3333333), wk =   0.0063492
        k(   64) = (   0.0000000  -0.1428571   0.4444444), wk =   0.0063492
        k(   65) = (   0.0000000  -0.2857143   0.1111111), wk =   0.0063492
        k(   66) = (   0.0000000  -0.2857143   0.2222222), wk =   0.0063492
        k(   67) = (   0.0000000  -0.2857143   0.3333333), wk =   0.0063492
        k(   68) = (   0.0000000  -0.2857143   0.4444444), wk =   0.0063492
        k(   69) = (   0.0000000  -0.4285714   0.1111111), wk =   0.0063492
        k(   70) = (   0.0000000  -0.4285714   0.2222222), wk =   0.0063492
        k(   71) = (   0.0000000  -0.4285714   0.3333333), wk =   0.0063492
        k(   72) = (   0.0000000  -0.4285714   0.4444444), wk =   0.0063492
        k(   73) = (  -0.2000000   0.0000000   0.1111111), wk =   0.0063492
        k(   74) = (  -0.2000000   0.0000000   0.2222222), wk =   0.0063492
        k(   75) = (  -0.2000000   0.0000000   0.3333333), wk =   0.0063492
        k(   76) = (  -0.2000000   0.0000000   0.4444444), wk =   0.0063492
        k(   77) = (  -0.2000000   0.1428571   0.0000000), wk =   0.0063492
        k(   78) = (  -0.2000000  -0.1428571   0.1111111), wk =   0.0063492
        k(   79) = (  -0.2000000   0.1428571  -0.1111111), wk =   0.0063492
        k(   80) = (   0.2000000  -0.1428571  -0.1111111), wk =   0.0063492
        k(   81) = (  -0.2000000  -0.1428571   0.2222222), wk =   0.0063492
        k(   82) = (  -0.2000000   0.1428571  -0.2222222), wk =   0.0063492
        k(   83) = (   0.2000000  -0.1428571  -0.2222222), wk =   0.0063492
        k(   84) = (  -0.2000000  -0.1428571   0.3333333), wk =   0.0063492
        k(   85) = (  -0.2000000   0.1428571  -0.3333333), wk =   0.0063492
        k(   86) = (   0.2000000  -0.1428571  -0.3333333), wk =   0.0063492
        k(   87) = (  -0.2000000  -0.1428571   0.4444444), wk =   0.0063492
        k(   88) = (  -0.2000000   0.1428571  -0.4444444), wk =   0.0063492
        k(   89) = (   0.2000000  -0.1428571  -0.4444444), wk =   0.0063492
        k(   90) = (  -0.2000000   0.2857143   0.0000000), wk =   0.0063492
        k(   91) = (  -0.2000000  -0.2857143   0.1111111), wk =   0.0063492
        k(   92) = (  -0.2000000   0.2857143  -0.1111111), wk =   0.0063492
        k(   93) = (   0.2000000  -0.2857143  -0.1111111), wk =   0.0063492
        k(   94) = (  -0.2000000  -0.2857143   0.2222222), wk =   0.0063492
        k(   95) = (  -0.2000000   0.2857143  -0.2222222), wk =   0.0063492
        k(   96) = (   0.2000000  -0.2857143  -0.2222222), wk =   0.0063492
        k(   97) = (  -0.2000000  -0.2857143   0.3333333), wk =   0.0063492
        k(   98) = (  -0.2000000   0.2857143  -0.3333333), wk =   0.0063492
        k(   99) = (   0.2000000  -0.2857143  -0.3333333), wk =   0.0063492
        k(  100) = (  -0.2000000  -0.2857143   0.4444444), wk =   0.0063492
        k(  101) = (  -0.2000000   0.2857143  -0.4444444), wk =   0.0063492
        k(  102) = (   0.2000000  -0.2857143  -0.4444444), wk =   0.0063492
        k(  103) = (  -0.2000000   0.4285714   0.0000000), wk =   0.0063492
        k(  104) = (  -0.2000000  -0.4285714   0.1111111), wk =   0.0063492
        k(  105) = (  -0.2000000   0.4285714  -0.1111111), wk =   0.0063492
        k(  106) = (   0.2000000  -0.4285714  -0.1111111), wk =   0.0063492
        k(  107) = (  -0.2000000  -0.4285714   0.2222222), wk =   0.0063492
        k(  108) = (  -0.2000000   0.4285714  -0.2222222), wk =   0.0063492
        k(  109) = (   0.2000000  -0.4285714  -0.2222222), wk =   0.0063492
        k(  110) = (  -0.2000000  -0.4285714   0.3333333), wk =   0.0063492
        k(  111) = (  -0.2000000   0.4285714  -0.3333333), wk =   0.0063492
        k(  112) = (   0.2000000  -0.4285714  -0.3333333), wk =   0.0063492
        k(  113) = (  -0.2000000  -0.4285714   0.4444444), wk =   0.0063492
        k(  114) = (  -0.2000000   0.4285714  -0.4444444), wk =   0.0063492
        k(  115) = (   0.2000000  -0.4285714  -0.4444444), wk =   0.0063492
        k(  116) = (  -0.4000000   0.0000000   0.1111111), wk =   0.0063492
        k(  117) = (  -0.4000000   0.0000000   0.2222222), wk =   0.0063492
        k(  118) = (  -0.4000000   0.0000000   0.3333333), wk =   0.0063492
        k(  119) = (  -0.4000000   0.0000000   0.4444444), wk =   0.0063492
        k(  120) = (  -0.4000000   0.1428571   0.0000000), wk =   0.0063492
        k(  121) = (  -0.4000000  -0.1428571   0.1111111), wk =   0.0063492
        k(  122) = (  -0.4000000   0.1428571  -0.1111111), wk =   0.0063492
        k(  123) = (   0.4000000  -0.1428571  -0.1111111), wk =   0.0063492
        k(  124) = (  -0.4000000  -0.1428571   0.2222222), wk =   0.0063492
        k(  125) = (  -0.4000000   0.1428571  -0.2222222), wk =   0.0063492
        k(  126) = (   0.4000000  -0.1428571  -0.2222222), wk =   0.0063492
        k(  127) = (  -0.4000000  -0.1428571   0.3333333), wk =   0.0063492
        k(  128) = (  -0.4000000   0.1428571  -0.3333333), wk =   0.0063492
        k(  129) = (   0.4000000  -0.1428571  -0.3333333), wk =   0.0063492
        k(  130) = (  -0.4000000  -0.1428571   0.4444444), wk =   0.0063492
        k(  131) = (  -0.4000000   0.1428571  -0.4444444), wk =   0.0063492
        k(  132) = (   0.4000000  -0.1428571  -0.4444444), wk =   0.0063492
        k(  133) = (  -0.4000000   0.2857143   0.0000000), wk =   0.0063492
        k(  134) = (  -0.4000000  -0.2857143   0.1111111), wk =   0.0063492
        k(  135) = (  -0.4000000   0.2857143  -0.1111111), wk =   0.0063492
        k(  136) = (   0.4000000  -0.2857143  -0.1111111), wk =   0.0063492
        k(  137) = (  -0.4000000  -0.2857143   0.2222222), wk =   0.0063492
        k(  138) = (  -0.4000000   0.2857143  -0.2222222), wk =   0.0063492
        k(  139) = (   0.4000000  -0.2857143  -0.2222222), wk =   0.0063492
        k(  140) = (  -0.4000000  -0.2857143   0.3333333), wk =   0.0063492
        k(  141) = (  -0.4000000   0.2857143  -0.3333333), wk =   0.0063492
        k(  142) = (   0.4000000  -0.2857143  -0.3333333), wk =   0.0063492
        k(  143) = (  -0.4000000  -0.2857143   0.4444444), wk =   0.0063492
        k(  144) = (  -0.4000000   0.2857143  -0.4444444), wk =   0.0063492
        k(  145) = (   0.4000000  -0.2857143  -0.4444444), wk =   0.0063492
        k(  146) = (  -0.4000000   0.4285714   0.0000000), wk =   0.0063492
        k(  147) = (  -0.4000000  -0.4285714   0.1111111), wk =   0.0063492
        k(  148) = (  -0.4000000   0.4285714  -0.1111111), wk =   0.0063492
        k(  149) = (   0.4000000  -0.4285714  -0.1111111), wk =   0.0063492
        k(  150) = (  -0.4000000  -0.4285714   0.2222222), wk =   0.0063492
        k(  151) = (  -0.4000000   0.4285714  -0.2222222), wk =   0.0063492
        k(  152) = (   0.4000000  -0.4285714  -0.2222222), wk =   0.0063492
        k(  153) = (  -0.4000000  -0.4285714   0.3333333), wk =   0.0063492
        k(  154) = (  -0.4000000   0.4285714  -0.3333333), wk =   0.0063492
        k(  155) = (   0.4000000  -0.4285714  -0.3333333), wk =   0.0063492
        k(  156) = (  -0.4000000  -0.4285714   0.4444444), wk =   0.0063492
        k(  157) = (  -0.4000000   0.4285714  -0.4444444), wk =   0.0063492
        k(  158) = (   0.4000000  -0.4285714  -0.4444444), wk =   0.0063492

     Dense  grid:  1338043 G-vectors     FFT dimensions: ( 216, 125, 100)

     Smooth grid:   301725 G-vectors     FFT dimensions: ( 135,  75,  60)

     Dynamical RAM for                 wfc:       4.10 MB

     Dynamical RAM for     wfc (w. buffer):    1299.15 MB

     Dynamical RAM for           str. fact:       5.10 MB

     Dynamical RAM for           local pot:       0.00 MB

     Dynamical RAM for          nlocal pot:      10.07 MB

     Dynamical RAM for                qrad:      10.54 MB

     Dynamical RAM for          rho,v,vnew:      16.31 MB

     Dynamical RAM for               rhoin:       5.44 MB

     Dynamical RAM for            rho*nmix:      40.83 MB

     Dynamical RAM for           G-vectors:       4.93 MB

     Dynamical RAM for          h,s,v(r/c):       2.38 MB

     Dynamical RAM for          <psi|beta>:       0.49 MB

     Dynamical RAM for                 psi:       8.20 MB

     Dynamical RAM for                hpsi:       8.20 MB

     Dynamical RAM for                spsi:       8.20 MB

     Dynamical RAM for      wfcinit/wfcrot:      10.28 MB

     Dynamical RAM for           addusdens:     259.04 MB

     Dynamical RAM for          addusforce:     297.45 MB

     Dynamical RAM for         addusstress:     258.41 MB

     Estimated static dynamical RAM per process >       1.37 GB

     Estimated max dynamical RAM per process >       1.66 GB

     Estimated total dynamical RAM >      26.64 GB

     Check: negative core charge=   -0.000003
     Generating pointlists ...
     new r_m :   0.0752 (alat units)  1.5290 (a.u.) for type    1
     new r_m :   0.0876 (alat units)  1.7798 (a.u.) for type    2
     new r_m :   0.0591 (alat units)  1.2014 (a.u.) for type    3
     new r_m :   0.0591 (alat units)  1.2014 (a.u.) for type    4

     Initial potential from superposition of free atoms

     starting charge  188.99132, renormalised to  189.00000
     Starting wfcs are  137 randomized atomic wfcs
     Checking if some PAW data can be deallocated... 
       PAW data deallocated on   13 nodes for type:  1
       PAW data deallocated on    4 nodes for type:  3

     total cpu time spent up to now is      243.2 secs

     Self-consistent Calculation

     iteration #  1     ecut=   100.00 Ry     beta= 0.40
     Davidson diagonalization with overlap
     ethr =  1.00E-02,  avg # of iterations =  3.0

     negative rho (up, down):  0.000E+00 9.224E-05

     total cpu time spent up to now is      929.1 secs

     total energy              =   -2123.86363020 Ry
     estimated scf accuracy    <       6.96640835 Ry

     total magnetization       =    19.00 Bohr mag/cell
     absolute magnetization    =    19.00 Bohr mag/cell

     iteration #  2     ecut=   100.00 Ry     beta= 0.40
     Davidson diagonalization with overlap
     ethr =  3.69E-03,  avg # of iterations =  2.0

     negative rho (up, down):  0.000E+00 2.307E-05

     total cpu time spent up to now is     1586.5 secs

     total energy              =   -2120.72166393 Ry
     estimated scf accuracy    <      42.56392803 Ry

     total magnetization       =     7.35 Bohr mag/cell
     absolute magnetization    =     8.83 Bohr mag/cell

     iteration #  3     ecut=   100.00 Ry     beta= 0.40
     Davidson diagonalization with overlap
     ethr =  3.69E-03,  avg # of iterations =  3.2

     negative rho (up, down):  0.000E+00 1.319E-05

     total cpu time spent up to now is     2174.0 secs

     total energy              =   -2122.92729190 Ry
     estimated scf accuracy    <      80.63015348 Ry

     total magnetization       =     1.00 Bohr mag/cell
     absolute magnetization    =     5.19 Bohr mag/cell

     iteration #  4     ecut=   100.00 Ry     beta= 0.40
     Davidson diagonalization with overlap
     ethr =  3.69E-03,  avg # of iterations =  1.5

     negative rho (up, down):  0.000E+00 3.137E-05

     total cpu time spent up to now is     2712.8 secs

     total energy              =   -2125.48240565 Ry
     estimated scf accuracy    <       8.73713749 Ry

     total magnetization       =    15.15 Bohr mag/cell
     absolute magnetization    =    15.22 Bohr mag/cell

     iteration #  5     ecut=   100.00 Ry     beta= 0.40
     Davidson diagonalization with overlap
     ethr =  3.69E-03,  avg # of iterations =  1.5

     negative rho (up, down):  0.000E+00 4.114E-05

     total cpu time spent up to now is     3252.0 secs

     total energy              =   -2125.59830006 Ry
     estimated scf accuracy    <       9.57392180 Ry

     total magnetization       =    14.99 Bohr mag/cell
     absolute magnetization    =    15.22 Bohr mag/cell

     iteration #  6     ecut=   100.00 Ry     beta= 0.40
     Davidson diagonalization with overlap
     ethr =  3.69E-03,  avg # of iterations =  1.0

     negative rho (up, down):  0.000E+00 1.293E-04

     total cpu time spent up to now is     3767.8 secs

     total energy              =   -2125.94269347 Ry
     estimated scf accuracy    <       1.89835808 Ry

     total magnetization       =    18.53 Bohr mag/cell
     absolute magnetization    =    18.53 Bohr mag/cell

     iteration #  7     ecut=   100.00 Ry     beta= 0.40
     Davidson diagonalization with overlap
     ethr =  1.00E-03,  avg # of iterations =  1.5

     negative rho (up, down):  0.000E+00 2.761E-04

     total cpu time spent up to now is     4309.0 secs

     total energy              =   -2126.07513850 Ry
     estimated scf accuracy    <       1.03511029 Ry

     total magnetization       =    19.03 Bohr mag/cell
     absolute magnetization    =    19.04 Bohr mag/cell

     iteration #  8     ecut=   100.00 Ry     beta= 0.40
     Davidson diagonalization with overlap
     ethr =  5.48E-04,  avg # of iterations =  1.0

     negative rho (up, down):  0.000E+00 4.902E-04

     total cpu time spent up to now is     4828.1 secs

     total energy              =   -2126.07220506 Ry
     estimated scf accuracy    <       0.27242182 Ry

     total magnetization       =    19.00 Bohr mag/cell
     absolute magnetization    =    19.00 Bohr mag/cell

     iteration #  9     ecut=   100.00 Ry     beta= 0.40
     Davidson diagonalization with overlap
     c_bands:  1 eigenvalues not converged
     c_bands:  1 eigenvalues not converged
     c_bands:  1 eigenvalues not converged
     ethr =  1.44E-04,  avg # of iterations =  7.5

     negative rho (up, down):  0.000E+00 7.866E-04

     total cpu time spent up to now is     5463.8 secs

     total energy              =   -2126.08094782 Ry
     estimated scf accuracy    <       0.09281961 Ry

     total magnetization       =    19.00 Bohr mag/cell
     absolute magnetization    =    19.01 Bohr mag/cell

     iteration # 10     ecut=   100.00 Ry     beta= 0.40
     Davidson diagonalization with overlap
     c_bands:  1 eigenvalues not converged
     c_bands:  1 eigenvalues not converged
     c_bands:  2 eigenvalues not converged
     c_bands:  1 eigenvalues not converged
     c_bands:  1 eigenvalues not converged
     ethr =  4.91E-05,  avg # of iterations = 11.3

     negative rho (up, down):  0.000E+00 8.189E-04

     total cpu time spent up to now is     6203.4 secs

     total energy              =   -2126.08830414 Ry
     estimated scf accuracy    <       0.06625863 Ry

     total magnetization       =    19.00 Bohr mag/cell
     absolute magnetization    =    19.02 Bohr mag/cell

     iteration # 11     ecut=   100.00 Ry     beta= 0.40
     Davidson diagonalization with overlap
     c_bands:  1 eigenvalues not converged
     c_bands:  1 eigenvalues not converged
     ethr =  3.51E-05,  avg # of iterations =  1.6

     negative rho (up, down):  0.000E+00 9.510E-04

     total cpu time spent up to now is     6738.9 secs

     total energy              =   -2126.09079722 Ry
     estimated scf accuracy    <       0.02149990 Ry

     total magnetization       =    19.00 Bohr mag/cell
     absolute magnetization    =    19.02 Bohr mag/cell

     iteration # 12     ecut=   100.00 Ry     beta= 0.40
     Davidson diagonalization with overlap
     c_bands:  1 eigenvalues not converged
     c_bands:  1 eigenvalues not converged
     c_bands:  1 eigenvalues not converged
     c_bands:  1 eigenvalues not converged
     c_bands:  1 eigenvalues not converged
     c_bands:  1 eigenvalues not converged
     c_bands:  1 eigenvalues not converged
     c_bands:  1 eigenvalues not converged
     c_bands:  1 eigenvalues not converged
     c_bands:  1 eigenvalues not converged
     c_bands:  1 eigenvalues not converged
     c_bands:  2 eigenvalues not converged
     c_bands:  1 eigenvalues not converged
     c_bands:  1 eigenvalues not converged
     c_bands:  1 eigenvalues not converged
     c_bands:  2 eigenvalues not converged
     ethr =  1.14E-05,  avg # of iterations =  6.3

     negative rho (up, down):  0.000E+00 9.608E-04

     total cpu time spent up to now is     7367.9 secs

     total energy              =   -2126.09285993 Ry
     estimated scf accuracy    <       0.03628034 Ry

     total magnetization       =    19.00 Bohr mag/cell
     absolute magnetization    =    19.04 Bohr mag/cell

     iteration # 13     ecut=   100.00 Ry     beta= 0.40
     Davidson diagonalization with overlap
     ethr =  1.14E-05,  avg # of iterations =  1.2

     negative rho (up, down):  0.000E+00 9.684E-04

     total cpu time spent up to now is     7889.9 secs

     total energy              =   -2126.09370736 Ry
     estimated scf accuracy    <       0.00780008 Ry

     total magnetization       =    19.00 Bohr mag/cell
     absolute magnetization    =    19.04 Bohr mag/cell

     iteration # 14     ecut=   100.00 Ry     beta= 0.40
     Davidson diagonalization with overlap
     c_bands:  1 eigenvalues not converged
     c_bands:  1 eigenvalues not converged
     c_bands:  1 eigenvalues not converged
     c_bands:  1 eigenvalues not converged
     c_bands:  1 eigenvalues not converged
     c_bands:  1 eigenvalues not converged
     c_bands:  1 eigenvalues not converged
     c_bands:  1 eigenvalues not converged
     c_bands:  1 eigenvalues not converged
     c_bands:  1 eigenvalues not converged
     c_bands:  1 eigenvalues not converged
     c_bands:  2 eigenvalues not converged
     c_bands:  1 eigenvalues not converged
     c_bands:  1 eigenvalues not converged
     c_bands:  1 eigenvalues not converged
     c_bands:  1 eigenvalues not converged
     c_bands:  1 eigenvalues not converged
     c_bands:  1 eigenvalues not converged
     c_bands:  1 eigenvalues not converged
     c_bands:  1 eigenvalues not converged
     c_bands:  1 eigenvalues not converged
     c_bands:  1 eigenvalues not converged
     c_bands:  2 eigenvalues not converged
     c_bands:  2 eigenvalues not converged
     ethr =  4.13E-06,  avg # of iterations =  7.0

     negative rho (up, down):  0.000E+00 9.680E-04

     total cpu time spent up to now is     8521.3 secs

     total energy              =   -2126.09421691 Ry
     estimated scf accuracy    <       0.00133516 Ry

     total magnetization       =    19.00 Bohr mag/cell
     absolute magnetization    =    19.04 Bohr mag/cell

     iteration # 15     ecut=   100.00 Ry     beta= 0.40
     Davidson diagonalization with overlap
     c_bands:  1 eigenvalues not converged
     c_bands:  1 eigenvalues not converged
     c_bands:  1 eigenvalues not converged
     c_bands:  1 eigenvalues not converged
     c_bands:  1 eigenvalues not converged
     c_bands:  1 eigenvalues not converged
     c_bands:  1 eigenvalues not converged
     c_bands:  1 eigenvalues not converged
     c_bands:  1 eigenvalues not converged
     c_bands:  1 eigenvalues not converged
     c_bands:  1 eigenvalues not converged
     ethr =  7.06E-07,  avg # of iterations =  7.3

     negative rho (up, down):  0.000E+00 9.586E-04

     total cpu time spent up to now is     9363.6 secs

     total energy              =   -2126.09473848 Ry
     estimated scf accuracy    <       0.00090441 Ry

     total magnetization       =    19.00 Bohr mag/cell
     absolute magnetization    =    19.05 Bohr mag/cell

     iteration # 16     ecut=   100.00 Ry     beta= 0.40
     Davidson diagonalization with overlap
     c_bands:  1 eigenvalues not converged
     ethr =  4.79E-07,  avg # of iterations =  1.4

     negative rho (up, down):  0.000E+00 9.675E-04

     total cpu time spent up to now is     9893.1 secs

     total energy              =   -2126.09478171 Ry
     estimated scf accuracy    <       0.00205033 Ry

     total magnetization       =    19.00 Bohr mag/cell
     absolute magnetization    =    19.05 Bohr mag/cell

     iteration # 17     ecut=   100.00 Ry     beta= 0.40
     Davidson diagonalization with overlap
     ethr =  4.79E-07,  avg # of iterations =  1.1

     negative rho (up, down):  0.000E+00 9.594E-04

     total cpu time spent up to now is    10413.0 secs

     total energy              =   -2126.09481911 Ry
     estimated scf accuracy    <       0.00021369 Ry

     total magnetization       =    19.00 Bohr mag/cell
     absolute magnetization    =    19.05 Bohr mag/cell

     iteration # 18     ecut=   100.00 Ry     beta= 0.40
     Davidson diagonalization with overlap
     ethr =  1.13E-07,  avg # of iterations =  2.0

     negative rho (up, down):  0.000E+00 9.562E-04

     total cpu time spent up to now is    10970.1 secs

     total energy              =   -2126.09484692 Ry
     estimated scf accuracy    <       0.00011980 Ry

     total magnetization       =    19.00 Bohr mag/cell
     absolute magnetization    =    19.05 Bohr mag/cell

     iteration # 19     ecut=   100.00 Ry     beta= 0.40
     Davidson diagonalization with overlap
     ethr =  6.34E-08,  avg # of iterations =  1.0

     negative rho (up, down):  0.000E+00 9.547E-04

     total cpu time spent up to now is    11488.9 secs

     total energy              =   -2126.09485532 Ry
     estimated scf accuracy    <       0.00005969 Ry

     total magnetization       =    19.00 Bohr mag/cell
     absolute magnetization    =    19.05 Bohr mag/cell

     iteration # 20     ecut=   100.00 Ry     beta= 0.40
     Davidson diagonalization with overlap
     ethr =  3.16E-08,  avg # of iterations =  1.1

     negative rho (up, down):  0.000E+00 9.561E-04

     total cpu time spent up to now is    12010.8 secs

     total energy              =   -2126.09486029 Ry
     estimated scf accuracy    <       0.00000864 Ry

     total magnetization       =    19.00 Bohr mag/cell
     absolute magnetization    =    19.05 Bohr mag/cell

     iteration # 21     ecut=   100.00 Ry     beta= 0.40
     Davidson diagonalization with overlap
     ethr =  4.57E-09,  avg # of iterations =  4.1

     negative rho (up, down):  0.000E+00 9.562E-04

     total cpu time spent up to now is    12760.4 secs

     total energy              =   -2126.09486452 Ry
     estimated scf accuracy    <       0.00000425 Ry

     total magnetization       =    19.00 Bohr mag/cell
     absolute magnetization    =    19.05 Bohr mag/cell

     iteration # 22     ecut=   100.00 Ry     beta= 0.40
     Davidson diagonalization with overlap
     ethr =  2.25E-09,  avg # of iterations =  2.0

     negative rho (up, down):  0.000E+00 9.574E-04

     total cpu time spent up to now is    13333.9 secs

     total energy              =   -2126.09486602 Ry
     estimated scf accuracy    <       0.00000736 Ry

     total magnetization       =    19.00 Bohr mag/cell
     absolute magnetization    =    19.05 Bohr mag/cell

     iteration # 23     ecut=   100.00 Ry     beta= 0.40
     Davidson diagonalization with overlap
     ethr =  2.25E-09,  avg # of iterations =  1.0

     negative rho (up, down):  0.000E+00 9.584E-04

     total cpu time spent up to now is    13851.4 secs

     total energy              =   -2126.09486663 Ry
     estimated scf accuracy    <       0.00000440 Ry

     total magnetization       =    19.00 Bohr mag/cell
     absolute magnetization    =    19.05 Bohr mag/cell

     iteration # 24     ecut=   100.00 Ry     beta= 0.40
     Davidson diagonalization with overlap
     ethr =  2.25E-09,  avg # of iterations =  1.0

     negative rho (up, down):  0.000E+00 9.582E-04

     total cpu time spent up to now is    14368.1 secs

     total energy              =   -2126.09486694 Ry
     estimated scf accuracy    <       0.00000136 Ry

     total magnetization       =    19.00 Bohr mag/cell
     absolute magnetization    =    19.05 Bohr mag/cell

     iteration # 25     ecut=   100.00 Ry     beta= 0.40
     Davidson diagonalization with overlap
     ethr =  7.22E-10,  avg # of iterations =  2.0

     negative rho (up, down):  0.000E+00 9.582E-04

     total cpu time spent up to now is    14928.1 secs

     total energy              =   -2126.09486718 Ry
     estimated scf accuracy    <       0.00000043 Ry

     total magnetization       =    19.00 Bohr mag/cell
     absolute magnetization    =    19.05 Bohr mag/cell

     iteration # 26     ecut=   100.00 Ry     beta= 0.40
     Davidson diagonalization with overlap
     ethr =  2.28E-10,  avg # of iterations =  1.5

     negative rho (up, down):  0.000E+00 9.581E-04

     total cpu time spent up to now is    15462.4 secs

     total energy              =   -2126.09486723 Ry
     estimated scf accuracy    <       0.00000010 Ry

     total magnetization       =    19.00 Bohr mag/cell
     absolute magnetization    =    19.05 Bohr mag/cell

     iteration # 27     ecut=   100.00 Ry     beta= 0.40
     Davidson diagonalization with overlap
     ethr =  5.50E-11,  avg # of iterations =  3.2

     negative rho (up, down):  0.000E+00 9.579E-04

     total cpu time spent up to now is    16134.6 secs

     total energy              =   -2126.09486731 Ry
     estimated scf accuracy    <       0.00000006 Ry

     total magnetization       =    19.00 Bohr mag/cell
     absolute magnetization    =    19.05 Bohr mag/cell

     iteration # 28     ecut=   100.00 Ry     beta= 0.40
     Davidson diagonalization with overlap
     ethr =  2.93E-11,  avg # of iterations =  2.0

     negative rho (up, down):  0.000E+00 9.579E-04

     total cpu time spent up to now is    16704.8 secs

     total energy              =   -2126.09486732 Ry
     estimated scf accuracy    <       0.00000003 Ry

     total magnetization       =    19.00 Bohr mag/cell
     absolute magnetization    =    19.05 Bohr mag/cell

     iteration # 29     ecut=   100.00 Ry     beta= 0.40
     Davidson diagonalization with overlap
     ethr =  1.77E-11,  avg # of iterations =  2.0

     negative rho (up, down):  0.000E+00 9.579E-04

     total cpu time spent up to now is    17273.7 secs

     total energy              =   -2126.09486733 Ry
     estimated scf accuracy    <       0.00000003 Ry

     total magnetization       =    19.00 Bohr mag/cell
     absolute magnetization    =    19.05 Bohr mag/cell

     iteration # 30     ecut=   100.00 Ry     beta= 0.40
     Davidson diagonalization with overlap
     ethr =  1.35E-11,  avg # of iterations =  1.2

     negative rho (up, down):  0.000E+00 9.579E-04

     total cpu time spent up to now is    17799.1 secs

     total energy              =   -2126.09486734 Ry
     estimated scf accuracy    <          4.7E-09 Ry

     total magnetization       =    19.00 Bohr mag/cell
     absolute magnetization    =    19.05 Bohr mag/cell

     iteration # 31     ecut=   100.00 Ry     beta= 0.40
     Davidson diagonalization with overlap
     ethr =  2.48E-12,  avg # of iterations =  3.9

     negative rho (up, down):  0.000E+00 9.580E-04

     total cpu time spent up to now is    18468.5 secs

     total energy              =   -2126.09486734 Ry
     estimated scf accuracy    <          4.6E-09 Ry

     total magnetization       =    19.00 Bohr mag/cell
     absolute magnetization    =    19.05 Bohr mag/cell

     iteration # 32     ecut=   100.00 Ry     beta= 0.40
     Davidson diagonalization with overlap
     ethr =  2.42E-12,  avg # of iterations =  2.0

     negative rho (up, down):  0.000E+00 9.580E-04

     total cpu time spent up to now is    19027.1 secs

     total energy              =   -2126.09486734 Ry
     estimated scf accuracy    <          2.9E-09 Ry

     total magnetization       =    19.00 Bohr mag/cell
     absolute magnetization    =    19.05 Bohr mag/cell

     iteration # 33     ecut=   100.00 Ry     beta= 0.40
     Davidson diagonalization with overlap
     ethr =  1.55E-12,  avg # of iterations =  2.0

     negative rho (up, down):  0.000E+00 9.580E-04

     total cpu time spent up to now is    19601.4 secs

     total energy              =   -2126.09486734 Ry
     estimated scf accuracy    <          1.6E-09 Ry

     total magnetization       =    19.00 Bohr mag/cell
     absolute magnetization    =    19.05 Bohr mag/cell

     iteration # 34     ecut=   100.00 Ry     beta= 0.40
     Davidson diagonalization with overlap
     ethr =  8.24E-13,  avg # of iterations =  2.0

     negative rho (up, down):  0.000E+00 9.580E-04

     total cpu time spent up to now is    20166.9 secs

     total energy              =   -2126.09486734 Ry
     estimated scf accuracy    <          3.0E-10 Ry

     total magnetization       =    19.00 Bohr mag/cell
     absolute magnetization    =    19.05 Bohr mag/cell

     iteration # 35     ecut=   100.00 Ry     beta= 0.40
     Davidson diagonalization with overlap
     ethr =  1.60E-13,  avg # of iterations =  3.6

     negative rho (up, down):  0.000E+00 9.580E-04

     total cpu time spent up to now is    20838.1 secs

     total energy              =   -2126.09486734 Ry
     estimated scf accuracy    <          4.9E-10 Ry

     total magnetization       =    19.00 Bohr mag/cell
     absolute magnetization    =    19.05 Bohr mag/cell

     iteration # 36     ecut=   100.00 Ry     beta= 0.40
     Davidson diagonalization with overlap
     ethr =  1.60E-13,  avg # of iterations =  1.0

     negative rho (up, down):  0.000E+00 9.580E-04

     Magnetic moment per site:
     atom:    1    charge:    7.9245    magn:    0.0005    constr:    0.0000
     atom:    2    charge:   12.9456    magn:    3.6933    constr:    0.0000
     atom:    3    charge:   12.9530    magn:    3.6726    constr:    0.0000
     atom:    4    charge:   12.9645    magn:    3.6527    constr:    0.0000
     atom:    5    charge:   12.9542    magn:    3.6724    constr:    0.0000
     atom:    6    charge:    0.8360    magn:    0.0100    constr:    0.0000
     atom:    7    charge:    0.8402    magn:    0.0079    constr:    0.0000
     atom:    8    charge:    0.8374    magn:    0.0102    constr:    0.0000
     atom:    9    charge:    0.8355    magn:    0.0079    constr:    0.0000
     atom:   10    charge:    4.2656    magn:    0.1346    constr:    0.0000
     atom:   11    charge:    4.2767    magn:    0.0823    constr:    0.0000
     atom:   12    charge:    4.2673    magn:    0.1304    constr:    0.0000
     atom:   13    charge:    4.2649    magn:    0.0903    constr:    0.0000
     atom:   14    charge:    4.2229    magn:    0.1040    constr:    0.0000
     atom:   15    charge:    4.2283    magn:    0.1396    constr:    0.0000
     atom:   16    charge:    4.2320    magn:    0.0866    constr:    0.0000
     atom:   17    charge:    4.2263    magn:    0.1472    constr:    0.0000
     atom:   18    charge:    4.2364    magn:    0.1475    constr:    0.0000
     atom:   19    charge:    4.2368    magn:    0.1228    constr:    0.0000
     atom:   20    charge:    4.2412    magn:    0.1530    constr:    0.0000
     atom:   21    charge:    4.2395    magn:    0.1346    constr:    0.0000
     atom:   22    charge:    4.2385    magn:    0.1418    constr:    0.0000
     atom:   23    charge:    4.2432    magn:    0.1179    constr:    0.0000
     atom:   24    charge:    4.2379    magn:    0.1522    constr:    0.0000
     atom:   25    charge:    4.2428    magn:    0.1322    constr:    0.0000

     total cpu time spent up to now is    21355.4 secs

     End of self-consistent calculation

 ------ SPIN UP ------------


          k = 0.0000 0.0000 0.0000 ( 37701 PWs)   bands (ev):

   -85.7248 -85.6169 -85.6163 -85.5787 -51.8299 -51.7686 -51.7675 -51.7621
   -51.6850 -51.6128 -51.5664 -51.5483 -51.5420 -51.5130 -51.4806 -51.3977
   -45.1621 -17.1800 -17.1472 -17.1155 -16.3475 -16.1787 -16.0777 -15.9585
   -14.0052 -13.9806 -13.8881 -13.8139 -13.7753 -13.7396 -13.6157 -13.6127
   -13.5635 -13.5316 -13.5035 -13.4590  -4.3878  -3.9366  -3.8640  -3.5046
    -2.4318  -2.1639  -2.0648  -1.9859  -1.7549  -1.5831  -1.5342  -1.4855
    -1.4123  -1.1648  -1.0018  -0.7428  -0.6473  -0.6214  -0.1551  -0.0905
     0.0695   0.0972   0.2072   0.3970   0.4721   0.5002   0.6100   0.7523
     0.8013   0.9303   0.9717   1.0513   1.2831   1.3354   1.3773   1.3888
     1.5414   1.6117   1.7367   1.8074   1.8781   1.9834   2.0202   2.1318
     2.2625   2.3105   2.3544   2.4730   2.5527   2.5958   2.6177   2.7598
     2.8687   2.9017   2.9779   3.0432   3.0711   3.2963   3.3368   3.4916
     3.5417   3.6201   3.6840   3.7453   3.8571   3.9758   4.3021   4.4014
     8.3613  10.4112  10.8849  11.1603  11.4895  12.1734  12.3110  12.6163
    12.8324  12.9696

     occupation numbers 
     1.0000   1.0000   1.0000   1.0000   1.0000   1.0000   1.0000   1.0000
     1.0000   1.0000   1.0000   1.0000   1.0000   1.0000   1.0000   1.0000
     1.0000   1.0000   1.0000   1.0000   1.0000   1.0000   1.0000   1.0000
     1.0000   1.0000   1.0000   1.0000   1.0000   1.0000   1.0000   1.0000
     1.0000   1.0000   1.0000   1.0000   1.0000   1.0000   1.0000   1.0000
     1.0000   1.0000   1.0000   1.0000   1.0000   1.0000   1.0000   1.0000
     1.0000   1.0000   1.0000   1.0000   1.0000   1.0000   1.0000   1.0000
     1.0000   1.0000   1.0000   1.0000   1.0000   1.0000   1.0000   1.0000
     1.0000   1.0000   1.0000   1.0000   1.0000   1.0000   1.0000   1.0000
     1.0000   1.0000   1.0000   1.0000   1.0000   1.0000   1.0000   1.0000
     1.0000   1.0000   1.0000   1.0000   1.0000   1.0000   1.0000   1.0000
     1.0000   1.0000   1.0000   1.0000   1.0000   1.0000   1.0000   1.0000
     1.0000   1.0000   1.0000   1.0000   1.0000   1.0000   1.0000   1.0000
     0.0000   0.0000   0.0000   0.0000   0.0000   0.0000   0.0000   0.0000
     0.0000   0.0000

          k = 0.0000 0.0000 0.2415 ( 37675 PWs)   bands (ev):

   -85.7248 -85.6169 -85.6163 -85.5787 -51.8299 -51.7686 -51.7675 -51.7621
   -51.6850 -51.6128 -51.5664 -51.5483 -51.5420 -51.5130 -51.4806 -51.3977
   -45.1621 -17.1803 -17.1468 -17.1178 -16.3302 -16.1703 -16.0720 -15.9576
   -14.0191 -13.9927 -13.9028 -13.8265 -13.7735 -13.7369 -13.6187 -13.6116
   -13.5664 -13.5329 -13.5013 -13.4601  -4.3664  -3.9332  -3.8597  -3.5145
    -2.3851  -2.1604  -2.0298  -1.9655  -1.7503  -1.6008  -1.5585  -1.4383
    -1.3721  -1.1340  -1.0468  -0.7237  -0.6902  -0.6025  -0.1405  -0.0727
     0.0682   0.1287   0.2022   0.3932   0.4595   0.4961   0.5855   0.7558
     0.7980   0.9272   0.9567   1.0459   1.2386   1.2914   1.3440   1.3832
     1.5697   1.6218   1.6785   1.7897   1.8771   1.9488   2.0191   2.1831
     2.2343   2.3284   2.3676   2.4315   2.5482   2.6133   2.6350   2.7098
     2.8479   2.9062   2.9940   3.0193   3.0533   3.3321   3.3539   3.4956
     3.5595   3.6353   3.7089   3.7427   3.8504   3.9802   4.2776   4.3785
     8.5077  10.4868  10.9192  11.1688  11.5438  12.0789  12.3691  12.5534
    12.7429  12.9415

     occupation numbers 
     1.0000   1.0000   1.0000   1.0000   1.0000   1.0000   1.0000   1.0000
     1.0000   1.0000   1.0000   1.0000   1.0000   1.0000   1.0000   1.0000
     1.0000   1.0000   1.0000   1.0000   1.0000   1.0000   1.0000   1.0000
     1.0000   1.0000   1.0000   1.0000   1.0000   1.0000   1.0000   1.0000
     1.0000   1.0000   1.0000   1.0000   1.0000   1.0000   1.0000   1.0000
     1.0000   1.0000   1.0000   1.0000   1.0000   1.0000   1.0000   1.0000
     1.0000   1.0000   1.0000   1.0000   1.0000   1.0000   1.0000   1.0000
     1.0000   1.0000   1.0000   1.0000   1.0000   1.0000   1.0000   1.0000
     1.0000   1.0000   1.0000   1.0000   1.0000   1.0000   1.0000   1.0000
     1.0000   1.0000   1.0000   1.0000   1.0000   1.0000   1.0000   1.0000
     1.0000   1.0000   1.0000   1.0000   1.0000   1.0000   1.0000   1.0000
     1.0000   1.0000   1.0000   1.0000   1.0000   1.0000   1.0000   1.0000
     1.0000   1.0000   1.0000   1.0000   1.0000   1.0000   1.0000   1.0000
     0.0000   0.0000   0.0000   0.0000   0.0000   0.0000   0.0000   0.0000
     0.0000   0.0000

          k = 0.0000 0.0000 0.4830 ( 37730 PWs)   bands (ev):

   -85.7248 -85.6169 -85.6163 -85.5787 -51.8299 -51.7686 -51.7675 -51.7621
   -51.6850 -51.6128 -51.5664 -51.5482 -51.5420 -51.5130 -51.4806 -51.3977
   -45.1621 -17.1824 -17.1460 -17.1213 -16.2839 -16.1490 -16.0576 -15.9567
   -14.0540 -14.0231 -13.9420 -13.8638 -13.7625 -13.7279 -13.6322 -13.6050
   -13.5749 -13.5360 -13.4961 -13.4627  -4.3039  -3.9197  -3.8583  -3.5543
    -2.2571  -2.1370  -1.9427  -1.9333  -1.7317  -1.6265  -1.5627  -1.4098
    -1.2231  -1.1596  -1.0482  -0.8209  -0.6437  -0.5479  -0.0956  -0.0310
     0.0890   0.1656   0.2030   0.3965   0.4158   0.4881   0.5094   0.7639
     0.8002   0.8991   0.9469   1.0190   1.1287   1.2063   1.2967   1.3681
     1.4068   1.5447   1.7437   1.7926   1.8215   1.9020   2.0637   2.1430
     2.2643   2.3138   2.3368   2.4210   2.4463   2.5535   2.6381   2.7162
     2.7768   2.9649   3.0262   3.0673   3.0937   3.3435   3.4071   3.5076
     3.6102   3.6875   3.7326   3.7603   3.8456   3.9898   4.2025   4.3098
     8.8981  10.6914  10.9751  11.2150  11.6897  11.9767  12.2439  12.4579
    12.5792  12.7266

     occupation numbers 
     1.0000   1.0000   1.0000   1.0000   1.0000   1.0000   1.0000   1.0000
     1.0000   1.0000   1.0000   1.0000   1.0000   1.0000   1.0000   1.0000
     1.0000   1.0000   1.0000   1.0000   1.0000   1.0000   1.0000   1.0000
     1.0000   1.0000   1.0000   1.0000   1.0000   1.0000   1.0000   1.0000
     1.0000   1.0000   1.0000   1.0000   1.0000   1.0000   1.0000   1.0000
     1.0000   1.0000   1.0000   1.0000   1.0000   1.0000   1.0000   1.0000
     1.0000   1.0000   1.0000   1.0000   1.0000   1.0000   1.0000   1.0000
     1.0000   1.0000   1.0000   1.0000   1.0000   1.0000   1.0000   1.0000
     1.0000   1.0000   1.0000   1.0000   1.0000   1.0000   1.0000   1.0000
     1.0000   1.0000   1.0000   1.0000   1.0000   1.0000   1.0000   1.0000
     1.0000   1.0000   1.0000   1.0000   1.0000   1.0000   1.0000   1.0000
     1.0000   1.0000   1.0000   1.0000   1.0000   1.0000   1.0000   1.0000
     1.0000   1.0000   1.0000   1.0000   1.0000   1.0000   1.0000   1.0000
     0.0000   0.0000   0.0000   0.0000   0.0000   0.0000   0.0000   0.0000
     0.0000   0.0000

          k = 0.0000 0.0000 0.7246 ( 37724 PWs)   bands (ev):

   -85.7248 -85.6169 -85.6163 -85.5787 -51.8299 -51.7686 -51.7675 -51.7621
   -51.6850 -51.6128 -51.5664 -51.5482 -51.5420 -51.5130 -51.4806 -51.3977
   -45.1621 -17.1871 -17.1456 -17.1219 -16.2233 -16.1274 -16.0400 -15.9604
   -14.0927 -14.0561 -13.9900 -13.9102 -13.7413 -13.7146 -13.6538 -13.5980
   -13.5863 -13.5392 -13.4908 -13.4654  -4.2066  -3.9086  -3.8645  -3.6301
    -2.1475  -2.0293  -1.9340  -1.8389  -1.6907  -1.6379  -1.5498  -1.3816
    -1.2982  -1.0227  -0.9796  -0.9207  -0.5237  -0.4468  -0.0298   0.0207
     0.0782   0.1512   0.2450   0.3384   0.3816   0.4281   0.5252   0.7456
     0.7954   0.8296   0.9331   0.9902   1.0165   1.0665   1.1608   1.2703
     1.3931   1.4613   1.6983   1.7097   1.8887   1.9610   2.0308   2.1755
     2.2054   2.2436   2.2978   2.3226   2.4270   2.4449   2.5589   2.6478
     2.8298   3.0033   3.1048   3.2087   3.2998   3.3625   3.4129   3.5233
     3.6680   3.7160   3.7500   3.8041   3.8793   3.9929   4.0755   4.1979
     9.4300  10.8777  10.9940  11.3385  11.7859  11.9286  12.0807  12.2929
    12.4710  12.5386

     occupation numbers 
     1.0000   1.0000   1.0000   1.0000   1.0000   1.0000   1.0000   1.0000
     1.0000   1.0000   1.0000   1.0000   1.0000   1.0000   1.0000   1.0000
     1.0000   1.0000   1.0000   1.0000   1.0000   1.0000   1.0000   1.0000
     1.0000   1.0000   1.0000   1.0000   1.0000   1.0000   1.0000   1.0000
     1.0000   1.0000   1.0000   1.0000   1.0000   1.0000   1.0000   1.0000
     1.0000   1.0000   1.0000   1.0000   1.0000   1.0000   1.0000   1.0000
     1.0000   1.0000   1.0000   1.0000   1.0000   1.0000   1.0000   1.0000
     1.0000   1.0000   1.0000   1.0000   1.0000   1.0000   1.0000   1.0000
     1.0000   1.0000   1.0000   1.0000   1.0000   1.0000   1.0000   1.0000
     1.0000   1.0000   1.0000   1.0000   1.0000   1.0000   1.0000   1.0000
     1.0000   1.0000   1.0000   1.0000   1.0000   1.0000   1.0000   1.0000
     1.0000   1.0000   1.0000   1.0000   1.0000   1.0000   1.0000   1.0000
     1.0000   1.0000   1.0000   1.0000   1.0000   1.0000   1.0000   1.0000
     0.0000   0.0000   0.0000   0.0000   0.0000   0.0000   0.0000   0.0000
     0.0000   0.0000

          k = 0.0000 0.0000 0.9661 ( 37764 PWs)   bands (ev):

   -85.7248 -85.6169 -85.6163 -85.5787 -51.8299 -51.7686 -51.7675 -51.7621
   -51.6850 -51.6128 -51.5664 -51.5482 -51.5420 -51.5130 -51.4806 -51.3977
   -45.1621 -17.1911 -17.1455 -17.1207 -16.1701 -16.1241 -16.0243 -15.9688
   -14.1173 -14.0756 -14.0241 -13.9421 -13.7155 -13.7031 -13.6798 -13.5998
   -13.5896 -13.5415 -13.4877 -13.4668  -4.0920  -3.9714  -3.8190  -3.7185
    -2.0934  -1.9943  -1.8570  -1.7764  -1.6572  -1.5984  -1.5502  -1.4789
    -1.2611  -1.1353  -0.8892  -0.8084  -0.3458  -0.2668  -0.0828  -0.0184
     0.0732   0.1073   0.2308   0.2694   0.3802   0.4720   0.5799   0.6310
     0.7449   0.7737   0.8489   0.9478   0.9764   1.0230   1.0499   1.2568
     1.4328   1.4884   1.5736   1.6363   1.9119   2.0025   2.0708   2.1171
     2.1607   2.2178   2.2593   2.3001   2.3529   2.3799   2.5125   2.6371
     2.8531   3.0085   3.1707   3.3297   3.3580   3.4286   3.5287   3.5846
     3.6474   3.7205   3.8175   3.8301   3.8964   3.9471   3.9889   4.0654
    10.0023  10.5422  11.2977  11.5238  11.6513  11.7594  12.1046  12.2304
    12.4595  12.5063

     occupation numbers 
     1.0000   1.0000   1.0000   1.0000   1.0000   1.0000   1.0000   1.0000
     1.0000   1.0000   1.0000   1.0000   1.0000   1.0000   1.0000   1.0000
     1.0000   1.0000   1.0000   1.0000   1.0000   1.0000   1.0000   1.0000
     1.0000   1.0000   1.0000   1.0000   1.0000   1.0000   1.0000   1.0000
     1.0000   1.0000   1.0000   1.0000   1.0000   1.0000   1.0000   1.0000
     1.0000   1.0000   1.0000   1.0000   1.0000   1.0000   1.0000   1.0000
     1.0000   1.0000   1.0000   1.0000   1.0000   1.0000   1.0000   1.0000
     1.0000   1.0000   1.0000   1.0000   1.0000   1.0000   1.0000   1.0000
     1.0000   1.0000   1.0000   1.0000   1.0000   1.0000   1.0000   1.0000
     1.0000   1.0000   1.0000   1.0000   1.0000   1.0000   1.0000   1.0000
     1.0000   1.0000   1.0000   1.0000   1.0000   1.0000   1.0000   1.0000
     1.0000   1.0000   1.0000   1.0000   1.0000   1.0000   1.0000   1.0000
     1.0000   1.0000   1.0000   1.0000   1.0000   1.0000   1.0000   1.0000
     0.0000   0.0000   0.0000   0.0000   0.0000   0.0000   0.0000   0.0000
     0.0000   0.0000

          k = 0.0000 0.2470 0.0000 ( 37673 PWs)   bands (ev):

   -85.7248 -85.6169 -85.6163 -85.5787 -51.8299 -51.7686 -51.7675 -51.7621
   -51.6850 -51.6128 -51.5664 -51.5482 -51.5420 -51.5130 -51.4806 -51.3977
   -45.1621 -17.1803 -17.1474 -17.1155 -16.3303 -16.1760 -16.0758 -15.9757
   -14.0018 -13.9778 -13.8913 -13.8175 -13.7820 -13.7489 -13.6792 -13.5933
   -13.5471 -13.5207 -13.4823 -13.4580  -4.3601  -3.9124  -3.8842  -3.5151
    -2.4015  -2.1499  -2.0708  -1.9902  -1.7382  -1.5806  -1.5136  -1.4682
    -1.3764  -1.1708  -0.9878  -0.7320  -0.6890  -0.5857  -0.1091  -0.0467
     0.0469   0.0786   0.1566   0.2543   0.3871   0.5880   0.6917   0.7683
     0.8691   0.9317   0.9618   1.0333   1.1281   1.1530   1.3292   1.3924
     1.5358   1.7593   1.7895   1.8664   1.9035   1.9522   2.0073   2.0695
     2.2601   2.2845   2.3268   2.3944   2.5059   2.6187   2.7127   2.8304
     2.8455   2.8773   2.9169   3.0755   3.1264   3.2965   3.3286   3.4876
     3.5172   3.5874   3.6910   3.7637   3.8047   4.0124   4.3149   4.3793
     8.5207  10.5034  10.9591  11.0746  11.5749  12.1357  12.3694  12.6858
    12.7613  12.9533

     occupation numbers 
     1.0000   1.0000   1.0000   1.0000   1.0000   1.0000   1.0000   1.0000
     1.0000   1.0000   1.0000   1.0000   1.0000   1.0000   1.0000   1.0000
     1.0000   1.0000   1.0000   1.0000   1.0000   1.0000   1.0000   1.0000
     1.0000   1.0000   1.0000   1.0000   1.0000   1.0000   1.0000   1.0000
     1.0000   1.0000   1.0000   1.0000   1.0000   1.0000   1.0000   1.0000
     1.0000   1.0000   1.0000   1.0000   1.0000   1.0000   1.0000   1.0000
     1.0000   1.0000   1.0000   1.0000   1.0000   1.0000   1.0000   1.0000
     1.0000   1.0000   1.0000   1.0000   1.0000   1.0000   1.0000   1.0000
     1.0000   1.0000   1.0000   1.0000   1.0000   1.0000   1.0000   1.0000
     1.0000   1.0000   1.0000   1.0000   1.0000   1.0000   1.0000   1.0000
     1.0000   1.0000   1.0000   1.0000   1.0000   1.0000   1.0000   1.0000
     1.0000   1.0000   1.0000   1.0000   1.0000   1.0000   1.0000   1.0000
     1.0000   1.0000   1.0000   1.0000   1.0000   1.0000   1.0000   1.0000
     0.0000   0.0000   0.0000   0.0000   0.0000   0.0000   0.0000   0.0000
     0.0000   0.0000

          k = 0.0000 0.2470 0.2415 ( 37679 PWs)   bands (ev):

   -85.7248 -85.6169 -85.6163 -85.5787 -51.8299 -51.7686 -51.7675 -51.7621
   -51.6850 -51.6128 -51.5664 -51.5482 -51.5420 -51.5130 -51.4806 -51.3977
   -45.1621 -17.1809 -17.1471 -17.1176 -16.3114 -16.1684 -16.0693 -15.9753
   -14.0176 -13.9900 -13.9093 -13.8272 -13.7792 -13.7476 -13.6789 -13.5973
   -13.5496 -13.5178 -13.4810 -13.4586  -4.3393  -3.9099  -3.8787  -3.5233
    -2.3568  -2.1461  -2.0351  -1.9682  -1.7351  -1.6027  -1.5257  -1.4107
    -1.3545  -1.1451  -1.0317  -0.7425  -0.6951  -0.5744  -0.0943  -0.0301
     0.0355   0.0896   0.1521   0.2679   0.4011   0.5924   0.6681   0.7533
     0.8597   0.9102   0.9693   1.0242   1.1149   1.1447   1.2992   1.3778
     1.5816   1.6878   1.7636   1.8315   1.8736   1.9281   2.0227   2.1231
     2.2123   2.2755   2.3590   2.4036   2.5046   2.5818   2.6851   2.8061
     2.8252   2.8869   2.9335   3.0728   3.1111   3.3272   3.3403   3.4947
     3.5617   3.5881   3.7205   3.7584   3.8033   4.0063   4.3002   4.3588
     8.6606  10.5761  10.9956  11.1059  11.6175  12.0735  12.4049  12.5911
    12.7000  12.9115

     occupation numbers 
     1.0000   1.0000   1.0000   1.0000   1.0000   1.0000   1.0000   1.0000
     1.0000   1.0000   1.0000   1.0000   1.0000   1.0000   1.0000   1.0000
     1.0000   1.0000   1.0000   1.0000   1.0000   1.0000   1.0000   1.0000
     1.0000   1.0000   1.0000   1.0000   1.0000   1.0000   1.0000   1.0000
     1.0000   1.0000   1.0000   1.0000   1.0000   1.0000   1.0000   1.0000
     1.0000   1.0000   1.0000   1.0000   1.0000   1.0000   1.0000   1.0000
     1.0000   1.0000   1.0000   1.0000   1.0000   1.0000   1.0000   1.0000
     1.0000   1.0000   1.0000   1.0000   1.0000   1.0000   1.0000   1.0000
     1.0000   1.0000   1.0000   1.0000   1.0000   1.0000   1.0000   1.0000
     1.0000   1.0000   1.0000   1.0000   1.0000   1.0000   1.0000   1.0000
     1.0000   1.0000   1.0000   1.0000   1.0000   1.0000   1.0000   1.0000
     1.0000   1.0000   1.0000   1.0000   1.0000   1.0000   1.0000   1.0000
     1.0000   1.0000   1.0000   1.0000   1.0000   1.0000   1.0000   1.0000
     0.0000   0.0000   0.0000   0.0000   0.0000   0.0000   0.0000   0.0000
     0.0000   0.0000

          k = 0.0000 0.2470 0.4830 ( 37698 PWs)   bands (ev):

   -85.7248 -85.6169 -85.6163 -85.5787 -51.8299 -51.7686 -51.7675 -51.7621
   -51.6850 -51.6128 -51.5664 -51.5482 -51.5420 -51.5130 -51.4806 -51.3977
   -45.1621 -17.1830 -17.1463 -17.1210 -16.2657 -16.1468 -16.0557 -15.9722
   -14.0552 -14.0223 -13.9507 -13.8665 -13.7671 -13.7361 -13.6764 -13.6076
   -13.5531 -13.5192 -13.4787 -13.4601  -4.2785  -3.9019  -3.8687  -3.5600
    -2.2323  -2.1221  -1.9450  -1.9333  -1.7206  -1.6221  -1.5339  -1.3775
    -1.2179  -1.1441  -1.0594  -0.8413  -0.6399  -0.5400  -0.0558   0.0034
     0.0276   0.0715   0.1803   0.3189   0.4154   0.5593   0.5916   0.7571
     0.8344   0.9019   0.9451   1.0001   1.0565   1.1441   1.2245   1.3725
     1.4582   1.6093   1.7249   1.7828   1.8215   1.9433   2.0227   2.1143
     2.2308   2.2926   2.3590   2.3846   2.4501   2.5025   2.6254   2.6839
     2.8133   2.9263   3.0140   3.1027   3.1377   3.3518   3.3892   3.5056
     3.6198   3.6348   3.7124   3.7855   3.8318   4.0015   4.2551   4.3036
     9.0362  10.7766  11.0496  11.2006  11.7434  11.9972  12.2926  12.4552
    12.5878  12.7598

     occupation numbers 
     1.0000   1.0000   1.0000   1.0000   1.0000   1.0000   1.0000   1.0000
     1.0000   1.0000   1.0000   1.0000   1.0000   1.0000   1.0000   1.0000
     1.0000   1.0000   1.0000   1.0000   1.0000   1.0000   1.0000   1.0000
     1.0000   1.0000   1.0000   1.0000   1.0000   1.0000   1.0000   1.0000
     1.0000   1.0000   1.0000   1.0000   1.0000   1.0000   1.0000   1.0000
     1.0000   1.0000   1.0000   1.0000   1.0000   1.0000   1.0000   1.0000
     1.0000   1.0000   1.0000   1.0000   1.0000   1.0000   1.0000   1.0000
     1.0000   1.0000   1.0000   1.0000   1.0000   1.0000   1.0000   1.0000
     1.0000   1.0000   1.0000   1.0000   1.0000   1.0000   1.0000   1.0000
     1.0000   1.0000   1.0000   1.0000   1.0000   1.0000   1.0000   1.0000
     1.0000   1.0000   1.0000   1.0000   1.0000   1.0000   1.0000   1.0000
     1.0000   1.0000   1.0000   1.0000   1.0000   1.0000   1.0000   1.0000
     1.0000   1.0000   1.0000   1.0000   1.0000   1.0000   1.0000   1.0000
     0.0000   0.0000   0.0000   0.0000   0.0000   0.0000   0.0000   0.0000
     0.0000   0.0000

          k = 0.0000 0.2470 0.7246 ( 37707 PWs)   bands (ev):

   -85.7248 -85.6169 -85.6163 -85.5787 -51.8299 -51.7686 -51.7675 -51.7621
   -51.6850 -51.6128 -51.5664 -51.5482 -51.5420 -51.5130 -51.4806 -51.3977
   -45.1621 -17.1873 -17.1457 -17.1217 -16.2086 -16.1225 -16.0418 -15.9703
   -14.0961 -14.0579 -13.9993 -13.9148 -13.7460 -13.7225 -13.6762 -13.6206
   -13.5569 -13.5242 -13.4768 -13.4612  -4.1849  -3.9064  -3.8535  -3.6314
    -2.1256  -2.0185  -1.9242  -1.8409  -1.6908  -1.6202  -1.5272  -1.3572
    -1.2800  -1.0261  -0.9823  -0.9226  -0.5515  -0.4684  -0.0711   0.0032
     0.0465   0.0872   0.2439   0.3843   0.4362   0.4626   0.5690   0.7616
     0.7723   0.8814   0.9166   0.9547   0.9871   1.0926   1.1417   1.2217
     1.3948   1.4865   1.6313   1.7336   1.9103   1.9511   1.9880   2.1029
     2.2219   2.2858   2.3116   2.3453   2.3882   2.4333   2.5152   2.6402
     2.8138   2.9434   3.1146   3.1969   3.2707   3.3777   3.4089   3.5208
     3.6333   3.6869   3.7202   3.8122   3.8980   3.9973   4.1802   4.2235
     9.5526  10.9705  11.0689  11.3552  11.8334  12.0160  12.1000  12.3122
    12.4545  12.5616

     occupation numbers 
     1.0000   1.0000   1.0000   1.0000   1.0000   1.0000   1.0000   1.0000
     1.0000   1.0000   1.0000   1.0000   1.0000   1.0000   1.0000   1.0000
     1.0000   1.0000   1.0000   1.0000   1.0000   1.0000   1.0000   1.0000
     1.0000   1.0000   1.0000   1.0000   1.0000   1.0000   1.0000   1.0000
     1.0000   1.0000   1.0000   1.0000   1.0000   1.0000   1.0000   1.0000
     1.0000   1.0000   1.0000   1.0000   1.0000   1.0000   1.0000   1.0000
     1.0000   1.0000   1.0000   1.0000   1.0000   1.0000   1.0000   1.0000
     1.0000   1.0000   1.0000   1.0000   1.0000   1.0000   1.0000   1.0000
     1.0000   1.0000   1.0000   1.0000   1.0000   1.0000   1.0000   1.0000
     1.0000   1.0000   1.0000   1.0000   1.0000   1.0000   1.0000   1.0000
     1.0000   1.0000   1.0000   1.0000   1.0000   1.0000   1.0000   1.0000
     1.0000   1.0000   1.0000   1.0000   1.0000   1.0000   1.0000   1.0000
     1.0000   1.0000   1.0000   1.0000   1.0000   1.0000   1.0000   1.0000
     0.0000   0.0000   0.0000   0.0000   0.0000   0.0000   0.0000   0.0000
     0.0000   0.0000

          k = 0.0000 0.2470 0.9661 ( 37706 PWs)   bands (ev):

   -85.7248 -85.6169 -85.6163 -85.5787 -51.8299 -51.7686 -51.7675 -51.7621
   -51.6850 -51.6128 -51.5664 -51.5482 -51.5420 -51.5130 -51.4806 -51.3977
   -45.1621 -17.1908 -17.1456 -17.1206 -16.1613 -16.1175 -16.0279 -15.9722
   -14.1223 -14.0787 -14.0336 -13.9477 -13.7229 -13.7136 -13.6827 -13.6293
   -13.5589 -13.5308 -13.4758 -13.4618  -4.0768  -3.9613  -3.8107  -3.7136
    -2.0754  -1.9781  -1.8535  -1.7751  -1.6643  -1.5832  -1.5299  -1.4369
    -1.2582  -1.1202  -0.8937  -0.8066  -0.4260  -0.3312  -0.1899  -0.1276
     0.1405   0.1848   0.2921   0.3155   0.3928   0.5387   0.6118   0.6383
     0.7558   0.7687   0.8823   0.9215   0.9782   0.9834   1.0480   1.1864
     1.4289   1.4701   1.5502   1.6526   1.9065   1.9741   2.0270   2.0764
     2.1830   2.2283   2.2569   2.3102   2.3747   2.4161   2.4876   2.6207
     2.8178   2.9431   3.1582   3.3105   3.3543   3.4247   3.4479   3.5338
     3.6010   3.6634   3.7810   3.8492   3.9450   4.0071   4.0889   4.1561
    10.1130  10.6437  11.3726  11.5674  11.7120  11.8293  12.1504  12.2521
    12.3899  12.4997

     occupation numbers 
     1.0000   1.0000   1.0000   1.0000   1.0000   1.0000   1.0000   1.0000
     1.0000   1.0000   1.0000   1.0000   1.0000   1.0000   1.0000   1.0000
     1.0000   1.0000   1.0000   1.0000   1.0000   1.0000   1.0000   1.0000
     1.0000   1.0000   1.0000   1.0000   1.0000   1.0000   1.0000   1.0000
     1.0000   1.0000   1.0000   1.0000   1.0000   1.0000   1.0000   1.0000
     1.0000   1.0000   1.0000   1.0000   1.0000   1.0000   1.0000   1.0000
     1.0000   1.0000   1.0000   1.0000   1.0000   1.0000   1.0000   1.0000
[...]
     atom   13 type  3   force =     0.00474711    0.00105922   -0.00186327
     atom   14 type  3   force =     0.05587129    0.00110175   -0.01005743
     atom   15 type  3   force =    -0.05092720    0.00071010   -0.01624951
     atom   16 type  3   force =    -0.05669349    0.00055479    0.00683607
     atom   17 type  3   force =     0.05060239   -0.00003430    0.01288730
     atom   18 type  3   force =    -0.00580877   -0.00488809    0.00291426
     atom   19 type  3   force =     0.00687064    0.00397910    0.00304851
     atom   20 type  3   force =     0.00695281   -0.00364906   -0.00277114
     atom   21 type  3   force =    -0.00679809    0.00376386   -0.00374267
     atom   22 type  3   force =     0.00835215    0.00570154   -0.00330724
     atom   23 type  3   force =    -0.00958842   -0.00275791   -0.00143391
     atom   24 type  3   force =    -0.00550823    0.00490176    0.00362706
     atom   25 type  3   force =     0.00656906   -0.00129627    0.00475626
     The non-local contrib.  to forces
     atom    1 type  2   force =     0.02830763    0.00870403   -0.01752191
     atom    2 type  1   force =     0.10165404    0.05088909    0.12932269
     atom    3 type  1   force =     0.04415551   -0.00500391    0.11537881
     atom    4 type  1   force =    -0.15763575   -0.06811608   -0.10634237
     atom    5 type  1   force =    -0.04356453    0.01754519   -0.10117999
     atom    6 type  4   force =    -0.06835036    0.00005956   -0.06365088
     atom    7 type  4   force =     0.07727991   -0.00032911   -0.04068770
     atom    8 type  4   force =     0.05449762    0.00784279    0.06978912
     atom    9 type  4   force =    -0.04856127   -0.00144928    0.06084285
     atom   10 type  3   force =     0.30629042   -0.02735156   -1.52835638
     atom   11 type  3   force =    -0.11854724   -0.01509957   -1.47956768
     atom   12 type  3   force =    -0.37394841    0.01604261    1.53260572
     atom   13 type  3   force =     0.23195700    0.00362770    1.52278903
     atom   14 type  3   force =     1.25918192   -0.01703542   -0.59446017
     atom   15 type  3   force =    -1.22030968    0.02164856   -0.71039657
     atom   16 type  3   force =    -1.24120613   -0.05908919    0.36100264
     atom   17 type  3   force =     1.20434744   -0.00974901    0.61834544
     atom   18 type  3   force =    -0.56510703   -1.07475772    0.74863375
     atom   19 type  3   force =     0.55544043    1.12930218    0.76052755
     atom   20 type  3   force =     0.54158737   -1.04760338   -0.68476721
     atom   21 type  3   force =    -0.56465110    1.04118120   -0.77401911
     atom   22 type  3   force =     0.62323146    1.08217053   -0.70766112
     atom   23 type  3   force =    -0.70557651   -1.00902979   -0.61950304
     atom   24 type  3   force =    -0.54830647    1.05605472    0.76354425
     atom   25 type  3   force =     0.60138692   -1.06676563    0.83177836
     The ionic contribution  to forces
     atom    1 type  2   force =    -1.78149946    0.36748751    0.22247083
     atom    2 type  1   force =    -0.09577252   -0.41719970   -0.27591682
     atom    3 type  1   force =    -9.76688164    0.91609348   -0.18552735
     atom    4 type  1   force =     1.92875112    0.99387306    0.41016765
     atom    5 type  1   force =    10.03446760   -1.25306449    0.54512270
     atom    6 type  4   force =    -4.64382686   -0.03146818    0.13529219
     atom    7 type  4   force =     1.64590939    1.21329186    0.54505491
     atom    8 type  4   force =     5.48444170   -0.04255182   -0.16969883
     atom    9 type  4   force =    -2.90414668   -1.35843745   -0.61276169
     atom   10 type  3   force =   -10.56574900    0.10091429    3.10764962
     atom   11 type  3   force =     4.72732438    1.92516125    1.92742861
     atom   12 type  3   force =    11.67761666   -0.16004739   -3.18597475
     atom   13 type  3   force =    -7.22984235   -1.91302023   -2.55158007
     atom   14 type  3   force =     0.16720148   -1.85615014    4.48194167
     atom   15 type  3   force =    -2.35525537   -0.12124027    6.17130976
     atom   16 type  3   force =    -1.19179178    2.65242731   -2.36616347
     atom   17 type  3   force =     3.39167752    0.13115775   -5.61215646
     atom   18 type  3   force =    -4.92228973    2.86972861   -2.90089082
     atom   19 type  3   force =    -0.07424900   -3.72910923   -1.75472031
     atom   20 type  3   force =     5.32232356    3.31732961    2.39929743
     atom   21 type  3   force =    -2.13316175   -2.20715688    2.73886050
     atom   22 type  3   force =     5.47979910   -3.47024118    2.66149136
     atom   23 type  3   force =     1.02820179    1.70288050    0.40228601
     atom   24 type  3   force =    -4.61988656   -2.65059765   -2.98127724
     atom   25 type  3   force =     1.39663839    3.01993938   -3.15170545
     The local contribution  to forces
     atom    1 type  2   force =     1.74652401   -0.38956221   -0.20570309
     atom    2 type  1   force =    -0.00417400    0.36730230    0.14227026
     atom    3 type  1   force =     9.71199728   -0.91172879    0.07048798
     atom    4 type  1   force =    -1.77079721   -0.92662570   -0.29848249
     atom    5 type  1   force =    -9.97783565    1.23785991   -0.44518237
     atom    6 type  4   force =     4.66347588    0.03209298   -0.08806634
     atom    7 type  4   force =    -1.67634803   -1.21214048   -0.51501865
     atom    8 type  4   force =    -5.49192985    0.03430425    0.11905529
     atom    9 type  4   force =     2.90836800    1.36034323    0.56631028
     atom   10 type  3   force =    10.27190925   -0.07345094   -1.58880758
     atom   11 type  3   force =    -4.61289720   -1.91085161   -0.45814267
     atom   12 type  3   force =   -11.31747071    0.14539380    1.66195324
     atom   13 type  3   force =     7.00542101    1.91048354    1.04023281
     atom   14 type  3   force =    -1.35893003    1.87407404   -3.90353703
     atom   15 type  3   force =     3.51335635    0.10051821   -5.48424720
     atom   16 type  3   force =     2.36491543   -2.59325449    2.01575830
     atom   17 type  3   force =    -4.53425173   -0.12153393    5.01290516
     atom   18 type  3   force =     5.47652981   -1.80928204    2.16203634
     atom   19 type  3   force =    -0.46942938    2.61373034    1.00427277
     atom   20 type  3   force =    -5.85210462   -2.28253397   -1.72356492
     atom   21 type  3   force =     2.68599025    1.17882596   -1.97577619
     atom   22 type  3   force =    -6.08903542    2.40325440   -1.96362325
     atom   23 type  3   force =    -0.33856008   -0.70543660    0.21005227
     atom   24 type  3   force =     5.15780128    1.60867118    2.22839512
     atom   25 type  3   force =    -1.98610696   -1.96368332    2.33240291
     The core correction contribution to forces
     atom    1 type  2   force =     0.00000000    0.00000000    0.00000000
     atom    2 type  1   force =    -0.00160757   -0.00045980   -0.00069264
     atom    3 type  1   force =    -0.00019830    0.00009786   -0.00022637
     atom    4 type  1   force =     0.00262053    0.00077068    0.00056685
     atom    5 type  1   force =     0.00007017   -0.00034605    0.00006584
     atom    6 type  4   force =     0.00654983   -0.00004173    0.00508863
     atom    7 type  4   force =    -0.00690289   -0.00026742    0.00314112
     atom    8 type  4   force =    -0.00562958   -0.00043192   -0.00557711
     atom    9 type  4   force =     0.00504205    0.00060303   -0.00447382
     atom   10 type  3   force =    -0.00348992    0.00025552    0.01337966
     atom   11 type  3   force =     0.00177406    0.00012561    0.01284525
     atom   12 type  3   force =     0.00410466   -0.00017632   -0.01337257
     atom   13 type  3   force =    -0.00278953   -0.00003190   -0.01330371
     atom   14 type  3   force =    -0.01158355    0.00021299    0.00599727
     atom   15 type  3   force =     0.01127423   -0.00021668    0.00708707
     atom   16 type  3   force =     0.01139243    0.00047120   -0.00375980
     atom   17 type  3   force =    -0.01117047    0.00009079   -0.00620717
     atom   18 type  3   force =     0.00505862    0.00941545   -0.00686872
     atom   19 type  3   force =    -0.00488740   -0.00994992   -0.00702719
     atom   20 type  3   force =    -0.00485564    0.00915604    0.00626592
     atom   21 type  3   force =     0.00502394   -0.00908897    0.00719077
     atom   22 type  3   force =    -0.00564499   -0.00947979    0.00648798
     atom   23 type  3   force =     0.00634578    0.00883006    0.00572958
     atom   24 type  3   force =     0.00488397   -0.00921891   -0.00703884
     atom   25 type  3   force =    -0.00534560    0.00921925   -0.00771527
     The Hubbard contrib.    to forces
     atom    1 type  2   force =     0.00000000    0.00000000    0.00000000
     atom    2 type  1   force =     0.00000000    0.00000000    0.00000000
     atom    3 type  1   force =     0.00000000    0.00000000    0.00000000
     atom    4 type  1   force =     0.00000000    0.00000000    0.00000000
     atom    5 type  1   force =     0.00000000    0.00000000    0.00000000
     atom    6 type  4   force =     0.00000000    0.00000000    0.00000000
     atom    7 type  4   force =     0.00000000    0.00000000    0.00000000
     atom    8 type  4   force =     0.00000000    0.00000000    0.00000000
     atom    9 type  4   force =     0.00000000    0.00000000    0.00000000
     atom   10 type  3   force =     0.00000000    0.00000000    0.00000000
     atom   11 type  3   force =     0.00000000    0.00000000    0.00000000
     atom   12 type  3   force =     0.00000000    0.00000000    0.00000000
     atom   13 type  3   force =     0.00000000    0.00000000    0.00000000
     atom   14 type  3   force =     0.00000000    0.00000000    0.00000000
     atom   15 type  3   force =     0.00000000    0.00000000    0.00000000
     atom   16 type  3   force =     0.00000000    0.00000000    0.00000000
     atom   17 type  3   force =     0.00000000    0.00000000    0.00000000
     atom   18 type  3   force =     0.00000000    0.00000000    0.00000000
     atom   19 type  3   force =     0.00000000    0.00000000    0.00000000
     atom   20 type  3   force =     0.00000000    0.00000000    0.00000000
     atom   21 type  3   force =     0.00000000    0.00000000    0.00000000
     atom   22 type  3   force =     0.00000000    0.00000000    0.00000000
     atom   23 type  3   force =     0.00000000    0.00000000    0.00000000
     atom   24 type  3   force =     0.00000000    0.00000000    0.00000000
     atom   25 type  3   force =     0.00000000    0.00000000    0.00000000
     The SCF correction term to forces
     atom    1 type  2   force =    -0.00000338    0.00000017    0.00000031
     atom    2 type  1   force =    -0.00000340   -0.00000014   -0.00000095
     atom    3 type  1   force =    -0.00000170   -0.00000007    0.00000058
     atom    4 type  1   force =     0.00000185   -0.00000020   -0.00000010
     atom    5 type  1   force =     0.00000340    0.00000038   -0.00000034
     atom    6 type  4   force =     0.00000018   -0.00000004    0.00000041
     atom    7 type  4   force =    -0.00000341   -0.00000022   -0.00000071
     atom    8 type  4   force =     0.00000294   -0.00000003   -0.00000042
     atom    9 type  4   force =    -0.00000002    0.00000016    0.00000017
     atom   10 type  3   force =    -0.00000201    0.00000006   -0.00000252
     atom   11 type  3   force =    -0.00000677   -0.00000010    0.00000334
     atom   12 type  3   force =     0.00000379   -0.00000008    0.00000177
     atom   13 type  3   force =     0.00000096    0.00000001   -0.00000101
     atom   14 type  3   force =     0.00000145    0.00000019    0.00000115
     atom   15 type  3   force =     0.00000725    0.00000019   -0.00000223
     atom   16 type  3   force =    -0.00000346   -0.00000015   -0.00000128
     atom   17 type  3   force =    -0.00000039   -0.00000000    0.00000065
     atom   18 type  3   force =    -0.00000045    0.00000751    0.00000403
     atom   19 type  3   force =    -0.00000404    0.00000563   -0.00000399
     atom   20 type  3   force =     0.00000212    0.00000255   -0.00000202
     atom   21 type  3   force =     0.00000054    0.00000246    0.00000169
     atom   22 type  3   force =     0.00000199   -0.00000252   -0.00000189
     atom   23 type  3   force =     0.00000059   -0.00000218    0.00000160
     atom   24 type  3   force =    -0.00000046   -0.00000768    0.00000410
     atom   25 type  3   force =    -0.00000372   -0.00000605   -0.00000396

     Total force =     0.143681     Total SCF correction =     0.000023


     Computing stress (Cartesian axis) and pressure


     negative rho (up, down):  0.000E+00 9.580E-04
          total   stress  (Ry/bohr**3)                   (kbar)     P=      -75.56
  -0.00100937  -0.00000637  -0.00002526         -148.48       -0.94       -3.72
  -0.00000637  -0.00033479   0.00002140           -0.94      -49.25        3.15
  -0.00002526   0.00002140  -0.00019675           -3.72        3.15      -28.94

     kinetic stress (kbar)  25363.85     13.38     -4.43
                               13.38  25648.07      3.25
                               -4.43      3.25  25469.40

     local   stress (kbar)  -3537.72   2278.95    943.78
                             2278.95 -15261.95   -869.19
                              943.78   -869.19  -8143.79

     nonloc. stress (kbar)  -6447.23      1.80     -2.21
                                1.80  -6409.45     -1.90
                               -2.21     -1.90  -6391.11

     hartree stress (kbar)  11781.84   -925.50   -372.17
                             -925.50  17843.51    350.26
                             -372.17    350.26  14376.49

     exc-cor stress (kbar)  -2697.78     -1.20     -0.81
                               -1.20  -2703.69      0.43
                               -0.81      0.43  -2701.99

     corecor stress (kbar)  -3012.57      0.38      0.91
                                0.38  -3012.75      0.00
                                0.91      0.00  -3015.28

     ewald   stress (kbar) -21598.87  -1368.74   -568.79
                            -1368.74 -16152.99    520.29
                             -568.79    520.29 -19622.67

     hubbard stress (kbar)      0.00      0.00      0.00
                                0.00      0.00      0.00
                                0.00      0.00      0.00

     DFT-D   stress (kbar)      0.00      0.00      0.00
                                0.00      0.00      0.00
                                0.00      0.00      0.00

     XDM     stress (kbar)      0.00      0.00      0.00
                                0.00      0.00      0.00
                                0.00      0.00      0.00

     dft-nl  stress (kbar)      0.00      0.00      0.00
                                0.00      0.00      0.00
                                0.00      0.00      0.00

     TS-vdW  stress (kbar)      0.00      0.00      0.00
                                0.00      0.00      0.00
                                0.00      0.00      0.00



     init_run     :    233.86s CPU    242.62s WALL (       1 calls)
     electrons    :  20464.38s CPU  21112.32s WALL (       1 calls)
     forces       :     86.37s CPU     88.38s WALL (       1 calls)
     stress       :    708.37s CPU    711.90s WALL (       1 calls)

     Called by init_run:
     wfcinit      :    220.87s CPU    229.05s WALL (       1 calls)
     wfcinit:atom :      3.10s CPU      3.14s WALL (     316 calls)
     wfcinit:wfcr :    206.71s CPU    214.80s WALL (     316 calls)
     potinit      :      4.40s CPU      4.50s WALL (       1 calls)
     hinit0       :      3.98s CPU      4.03s WALL (       1 calls)

     Called by electrons:
     c_bands      :  16388.22s CPU  16881.59s WALL (      36 calls)
     sum_band     :   3901.22s CPU   4038.47s WALL (      36 calls)
     v_of_rho     :     40.69s CPU     42.11s WALL (      37 calls)
     v_h          :      2.10s CPU      2.20s WALL (      37 calls)
     v_xc         :     40.67s CPU     42.08s WALL (      39 calls)
     newd         :     94.65s CPU    110.37s WALL (      37 calls)
     PAW_pot      :     30.33s CPU     30.40s WALL (      37 calls)
     mix_rho      :      9.76s CPU     10.12s WALL (      36 calls)

     Called by c_bands:
     init_us_2    :    297.99s CPU    300.19s WALL (   23700 calls)
     cegterg      :  15866.98s CPU  16356.58s WALL (   11376 calls)

     Called by sum_band:
     sum_band:wei :      0.51s CPU      0.51s WALL (      36 calls)
     sum_band:loo :   3666.44s CPU   3781.48s WALL (      36 calls)
     sum_band:buf :     81.83s CPU     82.67s WALL (   11376 calls)
     sum_band:ini :    144.44s CPU    145.32s WALL (   11376 calls)
     sum_band:cal :    472.01s CPU    481.92s WALL (   11376 calls)
     sum_band:bec :      4.38s CPU      4.55s WALL (   11376 calls)
     addusdens    :    230.10s CPU    252.08s WALL (      36 calls)
     addusd:skk   :      1.60s CPU      1.62s WALL (     108 calls)
     addusd:dgemm :     30.09s CPU     46.15s WALL (     216 calls)
     addusd:qvan2 :    196.84s CPU    197.71s WALL (     216 calls)

     Called by *egterg:
     cdiaghg      :    423.48s CPU    428.56s WALL (   42306 calls)
     cegterg:over :    740.36s CPU    754.96s WALL (   30930 calls)
     cegterg:upda :    603.67s CPU    610.61s WALL (   30930 calls)
     cegterg:last :   1034.46s CPU   1047.50s WALL (   19160 calls)
     h_psi        :  11520.51s CPU  11955.90s WALL (   42622 calls)
     s_psi        :   1086.94s CPU   1100.39s WALL (   42622 calls)
     g_psi        :     55.06s CPU     55.55s WALL (   30930 calls)

     Called by h_psi:
     h_psi:calbec :   1122.83s CPU   1146.52s WALL (   42622 calls)
     vloc_psi     :   9127.02s CPU   9522.95s WALL (   42622 calls)
     add_vuspsi   :   1097.39s CPU   1111.75s WALL (   42622 calls)

     General routines
     calbec       :   1654.91s CPU   1690.21s WALL (   55578 calls)
     fft          :     35.79s CPU     37.95s WALL (     963 calls)
     ffts         :      0.57s CPU      0.62s WALL (     146 calls)
     fftw         :   8381.95s CPU   8769.76s WALL ( 7025836 calls)
     interpolate  :      3.21s CPU      3.40s WALL (      74 calls)

     Parallel routines
     fft_scatt_xy :   1868.31s CPU   1964.27s WALL ( 7026945 calls)
     fft_scatt_yz :   1160.63s CPU   1258.93s WALL ( 7026945 calls)

     PAW routines
     PAW_pot      :     30.33s CPU     30.40s WALL (      37 calls)

     PWSCF        :      5h58m CPU      6h 9m WALL


   This run was terminated on:   4:18: 4  16Dec2022            

=------------------------------------------------------------------------------=
   JOB DONE.
=------------------------------------------------------------------------------=
Note: The following floating-point exceptions are signalling: IEEE_UNDERFLOW_FLAG IEEE_DENORMAL
Note: The following floating-point exceptions are signalling: IEEE_DENORMAL
Note: The following floating-point exceptions are signalling: IEEE_DENORMAL
Note: The following floating-point exceptions are signalling: IEEE_DENORMAL
Note: The following floating-point exceptions are signalling: IEEE_DENORMAL
Note: The following floating-point exceptions are signalling: IEEE_DENORMAL
Note: The following floating-point exceptions are signalling: IEEE_DENORMAL
Note: The following floating-point exceptions are signalling: IEEE_DENORMAL
Note: The following floating-point exceptions are signalling: IEEE_DENORMAL
Note: The following floating-point exceptions are signalling: IEEE_DENORMAL
Note: The following floating-point exceptions are signalling: IEEE_DENORMAL
Note: The following floating-point exceptions are signalling: IEEE_DENORMAL
Note: The following floating-point exceptions are signalling: IEEE_DENORMAL
Note: The following floating-point exceptions are signalling: IEEE_DENORMAL
