
     Program PWSCF v.6.7MaX starts on 15Dec2022 at 22: 8:42 

     This program is part of the open-source Quantum ESPRESSO suite
     for quantum simulation of materials; please cite
         "P. Giannozzi et al., J. Phys.:Condens. Matter 21 395502 (2009);
         "P. Giannozzi et al., J. Phys.:Condens. Matter 29 465901 (2017);
          URL http://www.quantum-espresso.org", 
     in publications or presentations arising from this work. More details at
     http://www.quantum-espresso.org/quote

     Parallel version (MPI), running on    16 processors

     MPI processes distributed on     1 nodes
     R & G space division:  proc/nbgrp/npool/nimage =      16
     Reading input from scale_1da-00.in

     Current dimensions of program PWSCF are:
     Max number of different atomic species (ntypx) = 10
     Max number of k-points (npk) =  40000
     Max angular momentum in pseudopotentials (lmaxx) =  3
     Message from routine read_pp_mesh:
     mesh size missing, using the one in header
     file Fe.pbe-spn-kjpaw_psl.0.2.1.UPF: wavefunction(s)  3D renormalized
     file O.pbe-n-kjpaw_psl.0.1.UPF: wavefunction(s)  2P renormalized

     Subspace diagonalization in iterative solution of the eigenvalue problem:
     a serial algorithm will be used


     Parallelization info
     --------------------
     sticks:   dense  smooth     PW     G-vecs:    dense   smooth      PW
     Min        1179     437    118                76883    17337    2438
     Max        1180     438    119                76886    17340    2440
     Sum       18873    6997   1891              1230153   277403   39017



     bravais-lattice index     =            0
     lattice parameter (alat)  =      18.6818  a.u.
     unit-cell volume          =    2052.3399 (a.u.)^3
     number of atoms/cell      =           25
     number of atomic types    =            4
     number of electrons       =       189.00
     number of Kohn-Sham states=          114
     kinetic-energy cutoff     =     100.0000  Ry
     charge density cutoff     =    1080.0000  Ry
     scf convergence threshold =      2.0E-10
     mixing beta               =       0.4000
     number of iterations used =            8  plain     mixing
     Exchange-correlation= PBE
                           (   1   4   3   4   0   0   0)

     celldm(1)=  18.681804  celldm(2)=   0.000000  celldm(3)=   0.000000
     celldm(4)=   0.000000  celldm(5)=   0.000000  celldm(6)=   0.000000

     crystal axes: (cart. coord. in units of alat)
               a(1) = (   1.000000   0.000000   0.000000 )  
               a(2) = (   0.000000   0.629042   0.000000 )  
               a(3) = (   0.000000   0.000000   0.500395 )  

     reciprocal axes: (cart. coord. in units 2 pi/alat)
               b(1) = (  1.000000  0.000000  0.000000 )  
               b(2) = (  0.000000  1.589719  0.000000 )  
               b(3) = (  0.000000  0.000000  1.998420 )  


     PseudoPot. # 1 for Fe read from file:
     /opt/QEpot/SSSP_precision_pseudos/Fe.pbe-spn-kjpaw_psl.0.2.1.UPF
     MD5 check sum: e86618425769142926afa95317d90200
     Pseudo is Projector augmented-wave + core cor, Zval = 16.0
     Generated using "atomic" code by A. Dal Corso  v.5.0.99 svn rev. 10869
     Shape of augmentation charge: PSQ
     Using radial grid of 1191 points,  6 beta functions with: 
                l(1) =   0
                l(2) =   0
                l(3) =   1
                l(4) =   1
                l(5) =   2
                l(6) =   2
     Q(r) pseudized with 0 coefficients 


     PseudoPot. # 2 for Na read from file:
     /opt/QEpot/SSSP_precision_pseudos/Na_ONCV_PBE-1.0.oncvpsp.upf
     MD5 check sum: 24a298df0a6742ae313db96548fdb2a4
     Pseudo is Norm-conserving, Zval =  9.0
     Generated using ONCVPSP code by D. R. Hamann
     Using radial grid of 1992 points,  4 beta functions with: 
                l(1) =   0
                l(2) =   0
                l(3) =   1
                l(4) =   1

     PseudoPot. # 3 for O  read from file:
     /opt/QEpot/SSSP_precision_pseudos/O.pbe-n-kjpaw_psl.0.1.UPF
     MD5 check sum: 0234752ac141de4415c5fc33072bef88
     Pseudo is Projector augmented-wave + core cor, Zval =  6.0
     Generated using "atomic" code by A. Dal Corso  v.5.0.99 svn rev. 10869
     Shape of augmentation charge: BESSEL
     Using radial grid of 1095 points,  4 beta functions with: 
                l(1) =   0
                l(2) =   0
                l(3) =   1
                l(4) =   1
     Q(r) pseudized with 0 coefficients 


     PseudoPot. # 4 for P  read from file:
     /opt/QEpot/SSSP_precision_pseudos/P.pbe-n-rrkjus_psl.1.0.0.UPF
     MD5 check sum: 8b930f418f0a4573dca56cd030ffe088
     Pseudo is Ultrasoft + core correction, Zval =  5.0
     Generated using "atomic" code by A. Dal Corso  v.5.1
     Using radial grid of 1147 points,  6 beta functions with: 
                l(1) =   0
                l(2) =   0
                l(3) =   1
                l(4) =   1
                l(5) =   2
                l(6) =   2
     Q(r) pseudized with 0 coefficients 


     atomic species   valence    mass     pseudopotential
        Fe            16.00    55.84500     Fe( 1.00)
        Na             9.00    22.98977     Na( 1.00)
        O              6.00    15.99940     O ( 1.00)
        P              5.00    30.97376     P ( 1.00)

     Starting magnetic structure 
     atomic species   magnetization
        Fe           0.312
        Na           0.000
        O            0.000
        P            0.000

     No symmetry found


                                    s                        frac. trans.

      isym =  1     identity                                     

 cryst.   s( 1) = (     1          0          0      )
                  (     0          1          0      )
                  (     0          0          1      )

 cart.    s( 1) = (  1.0000000  0.0000000  0.0000000 )
                  (  0.0000000  1.0000000  0.0000000 )
                  (  0.0000000  0.0000000  1.0000000 )


   Cartesian axes

     site n.     atom                  positions (alat units)
         1           Na  tau(   1) = (   0.5267800   0.0512292   0.2427558  )
         2           Fe  tau(   2) = (   0.2775050   0.4727553   0.4971022  )
         3           Fe  tau(   3) = (   0.2107690   0.1601088   0.2453388  )
         4           Fe  tau(   4) = (   0.7260420   0.1640938   0.0027982  )
         5           Fe  tau(   5) = (   0.7842060   0.4700013   0.2553532  )
         6           P   tau(   6) = (   0.1068460   0.4737586   0.2223701  )
         7           P   tau(   7) = (   0.3892680   0.1627954   0.4726018  )
         8           P   tau(   8) = (   0.8912160   0.1576524   0.2785946  )
         9           P   tau(   9) = (   0.6066990   0.4726653   0.0280602  )
        10           O   tau(  10) = (   0.1320850   0.4751777   0.3760265  )
        11           O   tau(  11) = (   0.3656990   0.1582443   0.1262167  )
        12           O   tau(  12) = (   0.8700850   0.1585255   0.1244028  )
        13           O   tau(  13) = (   0.6284590   0.4771189   0.3738938  )
        14           O   tau(  14) = (   0.4610830   0.4776649   0.0619044  )
        15           O   tau(  15) = (   0.0360890   0.1568875   0.3119739  )
        16           O   tau(  16) = (   0.5370310   0.1609675   0.4456650  )
        17           O   tau(  17) = (   0.9604850   0.4737083   0.1943380  )
        18           O   tau(  18) = (   0.1771920   0.5954807   0.1496667  )
        19           O   tau(  19) = (   0.3254690   0.0395680   0.3956205  )
        20           O   tau(  20) = (   0.8196290   0.2808452   0.3487655  )
        21           O   tau(  21) = (   0.6770690   0.3498002   0.0982926  )
        22           O   tau(  22) = (   0.8166330   0.0372141   0.3484452  )
        23           O   tau(  23) = (   0.6775470   0.5948819   0.1011619  )
        24           O   tau(  24) = (   0.1757850   0.3502563   0.1511704  )
        25           O   tau(  25) = (   0.3204000   0.2852064   0.4024599  )

   Crystallographic axes

     site n.     atom                  positions (cryst. coord.)
         1           Na  tau(   1) = (  0.5267800  0.0814400  0.4851280  )
         2           Fe  tau(   2) = (  0.2775050  0.7515480  0.9934190  )
         3           Fe  tau(   3) = (  0.2107690  0.2545280  0.4902900  )
         4           Fe  tau(   4) = (  0.7260420  0.2608630  0.0055920  )
         5           Fe  tau(   5) = (  0.7842060  0.7471700  0.5103030  )
         6           P   tau(   6) = (  0.1068460  0.7531430  0.4443890  )
         7           P   tau(   7) = (  0.3892680  0.2587990  0.9444570  )
         8           P   tau(   8) = (  0.8912160  0.2506230  0.5567490  )
         9           P   tau(   9) = (  0.6066990  0.7514050  0.0560760  )
        10           O   tau(  10) = (  0.1320850  0.7553990  0.7514590  )
        11           O   tau(  11) = (  0.3656990  0.2515640  0.2522340  )
        12           O   tau(  12) = (  0.8700850  0.2520110  0.2486090  )
        13           O   tau(  13) = (  0.6284590  0.7584850  0.7471970  )
        14           O   tau(  14) = (  0.4610830  0.7593530  0.1237110  )
        15           O   tau(  15) = (  0.0360890  0.2494070  0.6234550  )
        16           O   tau(  16) = (  0.5370310  0.2558930  0.8906260  )
        17           O   tau(  17) = (  0.9604850  0.7530630  0.3883690  )
        18           O   tau(  18) = (  0.1771920  0.9466470  0.2990970  )
        19           O   tau(  19) = (  0.3254690  0.0629020  0.7906160  )
        20           O   tau(  20) = (  0.8196290  0.4464650  0.6969800  )
        21           O   tau(  21) = (  0.6770690  0.5560840  0.1964300  )
        22           O   tau(  22) = (  0.8166330  0.0591600  0.6963400  )
        23           O   tau(  23) = (  0.6775470  0.9456950  0.2021640  )
        24           O   tau(  24) = (  0.1757850  0.5568090  0.3021020  )
        25           O   tau(  25) = (  0.3204000  0.4533980  0.8042840  )

     number of k points=   158  Marzari-Vanderbilt smearing, width (Ry)=  0.0073
                       cart. coord. in units 2pi/alat
        k(    1) = (   0.0000000   0.0000000   0.0000000), wk =   0.0031746
        k(    2) = (   0.0000000   0.0000000   0.2220467), wk =   0.0063492
        k(    3) = (   0.0000000   0.0000000   0.4440934), wk =   0.0063492
        k(    4) = (   0.0000000   0.0000000   0.6661401), wk =   0.0063492
        k(    5) = (   0.0000000   0.0000000   0.8881868), wk =   0.0063492
        k(    6) = (   0.0000000   0.2271027   0.0000000), wk =   0.0063492
        k(    7) = (   0.0000000   0.2271027   0.2220467), wk =   0.0063492
        k(    8) = (   0.0000000   0.2271027   0.4440934), wk =   0.0063492
        k(    9) = (   0.0000000   0.2271027   0.6661401), wk =   0.0063492
        k(   10) = (   0.0000000   0.2271027   0.8881868), wk =   0.0063492
        k(   11) = (   0.0000000   0.4542054   0.0000000), wk =   0.0063492
        k(   12) = (   0.0000000   0.4542054   0.2220467), wk =   0.0063492
        k(   13) = (   0.0000000   0.4542054   0.4440934), wk =   0.0063492
        k(   14) = (   0.0000000   0.4542054   0.6661401), wk =   0.0063492
        k(   15) = (   0.0000000   0.4542054   0.8881868), wk =   0.0063492
        k(   16) = (   0.0000000   0.6813081   0.0000000), wk =   0.0063492
        k(   17) = (   0.0000000   0.6813081   0.2220467), wk =   0.0063492
        k(   18) = (   0.0000000   0.6813081   0.4440934), wk =   0.0063492
        k(   19) = (   0.0000000   0.6813081   0.6661401), wk =   0.0063492
        k(   20) = (   0.0000000   0.6813081   0.8881868), wk =   0.0063492
        k(   21) = (   0.2000000   0.0000000   0.0000000), wk =   0.0063492
        k(   22) = (   0.2000000   0.0000000   0.2220467), wk =   0.0063492
        k(   23) = (   0.2000000   0.0000000   0.4440934), wk =   0.0063492
        k(   24) = (   0.2000000   0.0000000   0.6661401), wk =   0.0063492
        k(   25) = (   0.2000000   0.0000000   0.8881868), wk =   0.0063492
        k(   26) = (   0.2000000   0.2271027   0.0000000), wk =   0.0063492
        k(   27) = (   0.2000000   0.2271027   0.2220467), wk =   0.0063492
        k(   28) = (   0.2000000   0.2271027   0.4440934), wk =   0.0063492
        k(   29) = (   0.2000000   0.2271027   0.6661401), wk =   0.0063492
        k(   30) = (   0.2000000   0.2271027   0.8881868), wk =   0.0063492
        k(   31) = (   0.2000000   0.4542054   0.0000000), wk =   0.0063492
        k(   32) = (   0.2000000   0.4542054   0.2220467), wk =   0.0063492
        k(   33) = (   0.2000000   0.4542054   0.4440934), wk =   0.0063492
        k(   34) = (   0.2000000   0.4542054   0.6661401), wk =   0.0063492
        k(   35) = (   0.2000000   0.4542054   0.8881868), wk =   0.0063492
        k(   36) = (   0.2000000   0.6813081   0.0000000), wk =   0.0063492
        k(   37) = (   0.2000000   0.6813081   0.2220467), wk =   0.0063492
        k(   38) = (   0.2000000   0.6813081   0.4440934), wk =   0.0063492
        k(   39) = (   0.2000000   0.6813081   0.6661401), wk =   0.0063492
        k(   40) = (   0.2000000   0.6813081   0.8881868), wk =   0.0063492
        k(   41) = (   0.4000000   0.0000000   0.0000000), wk =   0.0063492
        k(   42) = (   0.4000000   0.0000000   0.2220467), wk =   0.0063492
        k(   43) = (   0.4000000   0.0000000   0.4440934), wk =   0.0063492
        k(   44) = (   0.4000000   0.0000000   0.6661401), wk =   0.0063492
        k(   45) = (   0.4000000   0.0000000   0.8881868), wk =   0.0063492
        k(   46) = (   0.4000000   0.2271027   0.0000000), wk =   0.0063492
        k(   47) = (   0.4000000   0.2271027   0.2220467), wk =   0.0063492
        k(   48) = (   0.4000000   0.2271027   0.4440934), wk =   0.0063492
        k(   49) = (   0.4000000   0.2271027   0.6661401), wk =   0.0063492
        k(   50) = (   0.4000000   0.2271027   0.8881868), wk =   0.0063492
        k(   51) = (   0.4000000   0.4542054   0.0000000), wk =   0.0063492
        k(   52) = (   0.4000000   0.4542054   0.2220467), wk =   0.0063492
        k(   53) = (   0.4000000   0.4542054   0.4440934), wk =   0.0063492
        k(   54) = (   0.4000000   0.4542054   0.6661401), wk =   0.0063492
        k(   55) = (   0.4000000   0.4542054   0.8881868), wk =   0.0063492
        k(   56) = (   0.4000000   0.6813081   0.0000000), wk =   0.0063492
        k(   57) = (   0.4000000   0.6813081   0.2220467), wk =   0.0063492
        k(   58) = (   0.4000000   0.6813081   0.4440934), wk =   0.0063492
        k(   59) = (   0.4000000   0.6813081   0.6661401), wk =   0.0063492
        k(   60) = (   0.4000000   0.6813081   0.8881868), wk =   0.0063492
        k(   61) = (   0.0000000  -0.2271027   0.2220467), wk =   0.0063492
        k(   62) = (   0.0000000  -0.2271027   0.4440934), wk =   0.0063492
        k(   63) = (   0.0000000  -0.2271027   0.6661401), wk =   0.0063492
        k(   64) = (   0.0000000  -0.2271027   0.8881868), wk =   0.0063492
        k(   65) = (   0.0000000  -0.4542054   0.2220467), wk =   0.0063492
        k(   66) = (   0.0000000  -0.4542054   0.4440934), wk =   0.0063492
        k(   67) = (   0.0000000  -0.4542054   0.6661401), wk =   0.0063492
        k(   68) = (   0.0000000  -0.4542054   0.8881868), wk =   0.0063492
        k(   69) = (   0.0000000  -0.6813081   0.2220467), wk =   0.0063492
        k(   70) = (   0.0000000  -0.6813081   0.4440934), wk =   0.0063492
        k(   71) = (   0.0000000  -0.6813081   0.6661401), wk =   0.0063492
        k(   72) = (   0.0000000  -0.6813081   0.8881868), wk =   0.0063492
        k(   73) = (  -0.2000000   0.0000000   0.2220467), wk =   0.0063492
        k(   74) = (  -0.2000000   0.0000000   0.4440934), wk =   0.0063492
        k(   75) = (  -0.2000000   0.0000000   0.6661401), wk =   0.0063492
        k(   76) = (  -0.2000000   0.0000000   0.8881868), wk =   0.0063492
        k(   77) = (  -0.2000000   0.2271027   0.0000000), wk =   0.0063492
        k(   78) = (  -0.2000000  -0.2271027   0.2220467), wk =   0.0063492
        k(   79) = (  -0.2000000   0.2271027  -0.2220467), wk =   0.0063492
        k(   80) = (   0.2000000  -0.2271027  -0.2220467), wk =   0.0063492
        k(   81) = (  -0.2000000  -0.2271027   0.4440934), wk =   0.0063492
        k(   82) = (  -0.2000000   0.2271027  -0.4440934), wk =   0.0063492
        k(   83) = (   0.2000000  -0.2271027  -0.4440934), wk =   0.0063492
        k(   84) = (  -0.2000000  -0.2271027   0.6661401), wk =   0.0063492
        k(   85) = (  -0.2000000   0.2271027  -0.6661401), wk =   0.0063492
        k(   86) = (   0.2000000  -0.2271027  -0.6661401), wk =   0.0063492
        k(   87) = (  -0.2000000  -0.2271027   0.8881868), wk =   0.0063492
        k(   88) = (  -0.2000000   0.2271027  -0.8881868), wk =   0.0063492
        k(   89) = (   0.2000000  -0.2271027  -0.8881868), wk =   0.0063492
        k(   90) = (  -0.2000000   0.4542054   0.0000000), wk =   0.0063492
        k(   91) = (  -0.2000000  -0.4542054   0.2220467), wk =   0.0063492
        k(   92) = (  -0.2000000   0.4542054  -0.2220467), wk =   0.0063492
        k(   93) = (   0.2000000  -0.4542054  -0.2220467), wk =   0.0063492
        k(   94) = (  -0.2000000  -0.4542054   0.4440934), wk =   0.0063492
        k(   95) = (  -0.2000000   0.4542054  -0.4440934), wk =   0.0063492
        k(   96) = (   0.2000000  -0.4542054  -0.4440934), wk =   0.0063492
        k(   97) = (  -0.2000000  -0.4542054   0.6661401), wk =   0.0063492
        k(   98) = (  -0.2000000   0.4542054  -0.6661401), wk =   0.0063492
        k(   99) = (   0.2000000  -0.4542054  -0.6661401), wk =   0.0063492
        k(  100) = (  -0.2000000  -0.4542054   0.8881868), wk =   0.0063492
        k(  101) = (  -0.2000000   0.4542054  -0.8881868), wk =   0.0063492
        k(  102) = (   0.2000000  -0.4542054  -0.8881868), wk =   0.0063492
        k(  103) = (  -0.2000000   0.6813081   0.0000000), wk =   0.0063492
        k(  104) = (  -0.2000000  -0.6813081   0.2220467), wk =   0.0063492
        k(  105) = (  -0.2000000   0.6813081  -0.2220467), wk =   0.0063492
        k(  106) = (   0.2000000  -0.6813081  -0.2220467), wk =   0.0063492
        k(  107) = (  -0.2000000  -0.6813081   0.4440934), wk =   0.0063492
        k(  108) = (  -0.2000000   0.6813081  -0.4440934), wk =   0.0063492
        k(  109) = (   0.2000000  -0.6813081  -0.4440934), wk =   0.0063492
        k(  110) = (  -0.2000000  -0.6813081   0.6661401), wk =   0.0063492
        k(  111) = (  -0.2000000   0.6813081  -0.6661401), wk =   0.0063492
        k(  112) = (   0.2000000  -0.6813081  -0.6661401), wk =   0.0063492
        k(  113) = (  -0.2000000  -0.6813081   0.8881868), wk =   0.0063492
        k(  114) = (  -0.2000000   0.6813081  -0.8881868), wk =   0.0063492
        k(  115) = (   0.2000000  -0.6813081  -0.8881868), wk =   0.0063492
        k(  116) = (  -0.4000000   0.0000000   0.2220467), wk =   0.0063492
        k(  117) = (  -0.4000000   0.0000000   0.4440934), wk =   0.0063492
        k(  118) = (  -0.4000000   0.0000000   0.6661401), wk =   0.0063492
        k(  119) = (  -0.4000000   0.0000000   0.8881868), wk =   0.0063492
        k(  120) = (  -0.4000000   0.2271027   0.0000000), wk =   0.0063492
        k(  121) = (  -0.4000000  -0.2271027   0.2220467), wk =   0.0063492
        k(  122) = (  -0.4000000   0.2271027  -0.2220467), wk =   0.0063492
        k(  123) = (   0.4000000  -0.2271027  -0.2220467), wk =   0.0063492
        k(  124) = (  -0.4000000  -0.2271027   0.4440934), wk =   0.0063492
        k(  125) = (  -0.4000000   0.2271027  -0.4440934), wk =   0.0063492
        k(  126) = (   0.4000000  -0.2271027  -0.4440934), wk =   0.0063492
        k(  127) = (  -0.4000000  -0.2271027   0.6661401), wk =   0.0063492
        k(  128) = (  -0.4000000   0.2271027  -0.6661401), wk =   0.0063492
        k(  129) = (   0.4000000  -0.2271027  -0.6661401), wk =   0.0063492
        k(  130) = (  -0.4000000  -0.2271027   0.8881868), wk =   0.0063492
        k(  131) = (  -0.4000000   0.2271027  -0.8881868), wk =   0.0063492
        k(  132) = (   0.4000000  -0.2271027  -0.8881868), wk =   0.0063492
        k(  133) = (  -0.4000000   0.4542054   0.0000000), wk =   0.0063492
        k(  134) = (  -0.4000000  -0.4542054   0.2220467), wk =   0.0063492
        k(  135) = (  -0.4000000   0.4542054  -0.2220467), wk =   0.0063492
        k(  136) = (   0.4000000  -0.4542054  -0.2220467), wk =   0.0063492
        k(  137) = (  -0.4000000  -0.4542054   0.4440934), wk =   0.0063492
        k(  138) = (  -0.4000000   0.4542054  -0.4440934), wk =   0.0063492
        k(  139) = (   0.4000000  -0.4542054  -0.4440934), wk =   0.0063492
        k(  140) = (  -0.4000000  -0.4542054   0.6661401), wk =   0.0063492
        k(  141) = (  -0.4000000   0.4542054  -0.6661401), wk =   0.0063492
        k(  142) = (   0.4000000  -0.4542054  -0.6661401), wk =   0.0063492
        k(  143) = (  -0.4000000  -0.4542054   0.8881868), wk =   0.0063492
        k(  144) = (  -0.4000000   0.4542054  -0.8881868), wk =   0.0063492
        k(  145) = (   0.4000000  -0.4542054  -0.8881868), wk =   0.0063492
        k(  146) = (  -0.4000000   0.6813081   0.0000000), wk =   0.0063492
        k(  147) = (  -0.4000000  -0.6813081   0.2220467), wk =   0.0063492
        k(  148) = (  -0.4000000   0.6813081  -0.2220467), wk =   0.0063492
        k(  149) = (   0.4000000  -0.6813081  -0.2220467), wk =   0.0063492
        k(  150) = (  -0.4000000  -0.6813081   0.4440934), wk =   0.0063492
        k(  151) = (  -0.4000000   0.6813081  -0.4440934), wk =   0.0063492
        k(  152) = (   0.4000000  -0.6813081  -0.4440934), wk =   0.0063492
        k(  153) = (  -0.4000000  -0.6813081   0.6661401), wk =   0.0063492
        k(  154) = (  -0.4000000   0.6813081  -0.6661401), wk =   0.0063492
        k(  155) = (   0.4000000  -0.6813081  -0.6661401), wk =   0.0063492
        k(  156) = (  -0.4000000  -0.6813081   0.8881868), wk =   0.0063492
        k(  157) = (  -0.4000000   0.6813081  -0.8881868), wk =   0.0063492
        k(  158) = (   0.4000000  -0.6813081  -0.8881868), wk =   0.0063492

                       cryst. coord.
        k(    1) = (   0.0000000   0.0000000   0.0000000), wk =   0.0031746
        k(    2) = (   0.0000000   0.0000000   0.1111111), wk =   0.0063492
        k(    3) = (   0.0000000   0.0000000   0.2222222), wk =   0.0063492
        k(    4) = (   0.0000000   0.0000000   0.3333333), wk =   0.0063492
        k(    5) = (   0.0000000   0.0000000   0.4444444), wk =   0.0063492
        k(    6) = (   0.0000000   0.1428571   0.0000000), wk =   0.0063492
        k(    7) = (   0.0000000   0.1428571   0.1111111), wk =   0.0063492
        k(    8) = (   0.0000000   0.1428571   0.2222222), wk =   0.0063492
        k(    9) = (   0.0000000   0.1428571   0.3333333), wk =   0.0063492
        k(   10) = (   0.0000000   0.1428571   0.4444444), wk =   0.0063492
        k(   11) = (   0.0000000   0.2857143   0.0000000), wk =   0.0063492
        k(   12) = (   0.0000000   0.2857143   0.1111111), wk =   0.0063492
        k(   13) = (   0.0000000   0.2857143   0.2222222), wk =   0.0063492
        k(   14) = (   0.0000000   0.2857143   0.3333333), wk =   0.0063492
        k(   15) = (   0.0000000   0.2857143   0.4444444), wk =   0.0063492
        k(   16) = (   0.0000000   0.4285714   0.0000000), wk =   0.0063492
        k(   17) = (   0.0000000   0.4285714   0.1111111), wk =   0.0063492
        k(   18) = (   0.0000000   0.4285714   0.2222222), wk =   0.0063492
        k(   19) = (   0.0000000   0.4285714   0.3333333), wk =   0.0063492
        k(   20) = (   0.0000000   0.4285714   0.4444444), wk =   0.0063492
        k(   21) = (   0.2000000   0.0000000   0.0000000), wk =   0.0063492
        k(   22) = (   0.2000000   0.0000000   0.1111111), wk =   0.0063492
        k(   23) = (   0.2000000   0.0000000   0.2222222), wk =   0.0063492
        k(   24) = (   0.2000000   0.0000000   0.3333333), wk =   0.0063492
        k(   25) = (   0.2000000   0.0000000   0.4444444), wk =   0.0063492
        k(   26) = (   0.2000000   0.1428571   0.0000000), wk =   0.0063492
        k(   27) = (   0.2000000   0.1428571   0.1111111), wk =   0.0063492
        k(   28) = (   0.2000000   0.1428571   0.2222222), wk =   0.0063492
        k(   29) = (   0.2000000   0.1428571   0.3333333), wk =   0.0063492
        k(   30) = (   0.2000000   0.1428571   0.4444444), wk =   0.0063492
        k(   31) = (   0.2000000   0.2857143   0.0000000), wk =   0.0063492
        k(   32) = (   0.2000000   0.2857143   0.1111111), wk =   0.0063492
        k(   33) = (   0.2000000   0.2857143   0.2222222), wk =   0.0063492
        k(   34) = (   0.2000000   0.2857143   0.3333333), wk =   0.0063492
        k(   35) = (   0.2000000   0.2857143   0.4444444), wk =   0.0063492
        k(   36) = (   0.2000000   0.4285714   0.0000000), wk =   0.0063492
        k(   37) = (   0.2000000   0.4285714   0.1111111), wk =   0.0063492
        k(   38) = (   0.2000000   0.4285714   0.2222222), wk =   0.0063492
        k(   39) = (   0.2000000   0.4285714   0.3333333), wk =   0.0063492
        k(   40) = (   0.2000000   0.4285714   0.4444444), wk =   0.0063492
        k(   41) = (   0.4000000   0.0000000   0.0000000), wk =   0.0063492
        k(   42) = (   0.4000000   0.0000000   0.1111111), wk =   0.0063492
        k(   43) = (   0.4000000   0.0000000   0.2222222), wk =   0.0063492
        k(   44) = (   0.4000000   0.0000000   0.3333333), wk =   0.0063492
        k(   45) = (   0.4000000   0.0000000   0.4444444), wk =   0.0063492
        k(   46) = (   0.4000000   0.1428571   0.0000000), wk =   0.0063492
        k(   47) = (   0.4000000   0.1428571   0.1111111), wk =   0.0063492
        k(   48) = (   0.4000000   0.1428571   0.2222222), wk =   0.0063492
        k(   49) = (   0.4000000   0.1428571   0.3333333), wk =   0.0063492
        k(   50) = (   0.4000000   0.1428571   0.4444444), wk =   0.0063492
        k(   51) = (   0.4000000   0.2857143   0.0000000), wk =   0.0063492
        k(   52) = (   0.4000000   0.2857143   0.1111111), wk =   0.0063492
        k(   53) = (   0.4000000   0.2857143   0.2222222), wk =   0.0063492
        k(   54) = (   0.4000000   0.2857143   0.3333333), wk =   0.0063492
        k(   55) = (   0.4000000   0.2857143   0.4444444), wk =   0.0063492
        k(   56) = (   0.4000000   0.4285714   0.0000000), wk =   0.0063492
        k(   57) = (   0.4000000   0.4285714   0.1111111), wk =   0.0063492
        k(   58) = (   0.4000000   0.4285714   0.2222222), wk =   0.0063492
        k(   59) = (   0.4000000   0.4285714   0.3333333), wk =   0.0063492
        k(   60) = (   0.4000000   0.4285714   0.4444444), wk =   0.0063492
        k(   61) = (   0.0000000  -0.1428571   0.1111111), wk =   0.0063492
        k(   62) = (   0.0000000  -0.1428571   0.2222222), wk =   0.0063492
        k(   63) = (   0.0000000  -0.1428571   0.3333333), wk =   0.0063492
        k(   64) = (   0.0000000  -0.1428571   0.4444444), wk =   0.0063492
        k(   65) = (   0.0000000  -0.2857143   0.1111111), wk =   0.0063492
        k(   66) = (   0.0000000  -0.2857143   0.2222222), wk =   0.0063492
        k(   67) = (   0.0000000  -0.2857143   0.3333333), wk =   0.0063492
        k(   68) = (   0.0000000  -0.2857143   0.4444444), wk =   0.0063492
        k(   69) = (   0.0000000  -0.4285714   0.1111111), wk =   0.0063492
        k(   70) = (   0.0000000  -0.4285714   0.2222222), wk =   0.0063492
        k(   71) = (   0.0000000  -0.4285714   0.3333333), wk =   0.0063492
        k(   72) = (   0.0000000  -0.4285714   0.4444444), wk =   0.0063492
        k(   73) = (  -0.2000000   0.0000000   0.1111111), wk =   0.0063492
        k(   74) = (  -0.2000000   0.0000000   0.2222222), wk =   0.0063492
        k(   75) = (  -0.2000000   0.0000000   0.3333333), wk =   0.0063492
        k(   76) = (  -0.2000000   0.0000000   0.4444444), wk =   0.0063492
        k(   77) = (  -0.2000000   0.1428571   0.0000000), wk =   0.0063492
        k(   78) = (  -0.2000000  -0.1428571   0.1111111), wk =   0.0063492
        k(   79) = (  -0.2000000   0.1428571  -0.1111111), wk =   0.0063492
        k(   80) = (   0.2000000  -0.1428571  -0.1111111), wk =   0.0063492
        k(   81) = (  -0.2000000  -0.1428571   0.2222222), wk =   0.0063492
        k(   82) = (  -0.2000000   0.1428571  -0.2222222), wk =   0.0063492
        k(   83) = (   0.2000000  -0.1428571  -0.2222222), wk =   0.0063492
        k(   84) = (  -0.2000000  -0.1428571   0.3333333), wk =   0.0063492
        k(   85) = (  -0.2000000   0.1428571  -0.3333333), wk =   0.0063492
        k(   86) = (   0.2000000  -0.1428571  -0.3333333), wk =   0.0063492
        k(   87) = (  -0.2000000  -0.1428571   0.4444444), wk =   0.0063492
        k(   88) = (  -0.2000000   0.1428571  -0.4444444), wk =   0.0063492
        k(   89) = (   0.2000000  -0.1428571  -0.4444444), wk =   0.0063492
        k(   90) = (  -0.2000000   0.2857143   0.0000000), wk =   0.0063492
        k(   91) = (  -0.2000000  -0.2857143   0.1111111), wk =   0.0063492
        k(   92) = (  -0.2000000   0.2857143  -0.1111111), wk =   0.0063492
        k(   93) = (   0.2000000  -0.2857143  -0.1111111), wk =   0.0063492
        k(   94) = (  -0.2000000  -0.2857143   0.2222222), wk =   0.0063492
        k(   95) = (  -0.2000000   0.2857143  -0.2222222), wk =   0.0063492
        k(   96) = (   0.2000000  -0.2857143  -0.2222222), wk =   0.0063492
        k(   97) = (  -0.2000000  -0.2857143   0.3333333), wk =   0.0063492
        k(   98) = (  -0.2000000   0.2857143  -0.3333333), wk =   0.0063492
        k(   99) = (   0.2000000  -0.2857143  -0.3333333), wk =   0.0063492
        k(  100) = (  -0.2000000  -0.2857143   0.4444444), wk =   0.0063492
        k(  101) = (  -0.2000000   0.2857143  -0.4444444), wk =   0.0063492
        k(  102) = (   0.2000000  -0.2857143  -0.4444444), wk =   0.0063492
        k(  103) = (  -0.2000000   0.4285714   0.0000000), wk =   0.0063492
        k(  104) = (  -0.2000000  -0.4285714   0.1111111), wk =   0.0063492
        k(  105) = (  -0.2000000   0.4285714  -0.1111111), wk =   0.0063492
        k(  106) = (   0.2000000  -0.4285714  -0.1111111), wk =   0.0063492
        k(  107) = (  -0.2000000  -0.4285714   0.2222222), wk =   0.0063492
        k(  108) = (  -0.2000000   0.4285714  -0.2222222), wk =   0.0063492
        k(  109) = (   0.2000000  -0.4285714  -0.2222222), wk =   0.0063492
        k(  110) = (  -0.2000000  -0.4285714   0.3333333), wk =   0.0063492
        k(  111) = (  -0.2000000   0.4285714  -0.3333333), wk =   0.0063492
        k(  112) = (   0.2000000  -0.4285714  -0.3333333), wk =   0.0063492
        k(  113) = (  -0.2000000  -0.4285714   0.4444444), wk =   0.0063492
        k(  114) = (  -0.2000000   0.4285714  -0.4444444), wk =   0.0063492
        k(  115) = (   0.2000000  -0.4285714  -0.4444444), wk =   0.0063492
        k(  116) = (  -0.4000000   0.0000000   0.1111111), wk =   0.0063492
        k(  117) = (  -0.4000000   0.0000000   0.2222222), wk =   0.0063492
        k(  118) = (  -0.4000000   0.0000000   0.3333333), wk =   0.0063492
        k(  119) = (  -0.4000000   0.0000000   0.4444444), wk =   0.0063492
        k(  120) = (  -0.4000000   0.1428571   0.0000000), wk =   0.0063492
        k(  121) = (  -0.4000000  -0.1428571   0.1111111), wk =   0.0063492
        k(  122) = (  -0.4000000   0.1428571  -0.1111111), wk =   0.0063492
        k(  123) = (   0.4000000  -0.1428571  -0.1111111), wk =   0.0063492
        k(  124) = (  -0.4000000  -0.1428571   0.2222222), wk =   0.0063492
        k(  125) = (  -0.4000000   0.1428571  -0.2222222), wk =   0.0063492
        k(  126) = (   0.4000000  -0.1428571  -0.2222222), wk =   0.0063492
        k(  127) = (  -0.4000000  -0.1428571   0.3333333), wk =   0.0063492
        k(  128) = (  -0.4000000   0.1428571  -0.3333333), wk =   0.0063492
        k(  129) = (   0.4000000  -0.1428571  -0.3333333), wk =   0.0063492
        k(  130) = (  -0.4000000  -0.1428571   0.4444444), wk =   0.0063492
        k(  131) = (  -0.4000000   0.1428571  -0.4444444), wk =   0.0063492
        k(  132) = (   0.4000000  -0.1428571  -0.4444444), wk =   0.0063492
        k(  133) = (  -0.4000000   0.2857143   0.0000000), wk =   0.0063492
        k(  134) = (  -0.4000000  -0.2857143   0.1111111), wk =   0.0063492
        k(  135) = (  -0.4000000   0.2857143  -0.1111111), wk =   0.0063492
        k(  136) = (   0.4000000  -0.2857143  -0.1111111), wk =   0.0063492
        k(  137) = (  -0.4000000  -0.2857143   0.2222222), wk =   0.0063492
        k(  138) = (  -0.4000000   0.2857143  -0.2222222), wk =   0.0063492
        k(  139) = (   0.4000000  -0.2857143  -0.2222222), wk =   0.0063492
        k(  140) = (  -0.4000000  -0.2857143   0.3333333), wk =   0.0063492
        k(  141) = (  -0.4000000   0.2857143  -0.3333333), wk =   0.0063492
        k(  142) = (   0.4000000  -0.2857143  -0.3333333), wk =   0.0063492
        k(  143) = (  -0.4000000  -0.2857143   0.4444444), wk =   0.0063492
        k(  144) = (  -0.4000000   0.2857143  -0.4444444), wk =   0.0063492
        k(  145) = (   0.4000000  -0.2857143  -0.4444444), wk =   0.0063492
        k(  146) = (  -0.4000000   0.4285714   0.0000000), wk =   0.0063492
        k(  147) = (  -0.4000000  -0.4285714   0.1111111), wk =   0.0063492
        k(  148) = (  -0.4000000   0.4285714  -0.1111111), wk =   0.0063492
        k(  149) = (   0.4000000  -0.4285714  -0.1111111), wk =   0.0063492
        k(  150) = (  -0.4000000  -0.4285714   0.2222222), wk =   0.0063492
        k(  151) = (  -0.4000000   0.4285714  -0.2222222), wk =   0.0063492
        k(  152) = (   0.4000000  -0.4285714  -0.2222222), wk =   0.0063492
        k(  153) = (  -0.4000000  -0.4285714   0.3333333), wk =   0.0063492
        k(  154) = (  -0.4000000   0.4285714  -0.3333333), wk =   0.0063492
        k(  155) = (   0.4000000  -0.4285714  -0.3333333), wk =   0.0063492
        k(  156) = (  -0.4000000  -0.4285714   0.4444444), wk =   0.0063492
        k(  157) = (  -0.4000000   0.4285714  -0.4444444), wk =   0.0063492
        k(  158) = (   0.4000000  -0.4285714  -0.4444444), wk =   0.0063492

     Dense  grid:  1230153 G-vectors     FFT dimensions: ( 200, 125, 100)

     Smooth grid:   277403 G-vectors     FFT dimensions: ( 120,  75,  60)

     Dynamical RAM for                 wfc:       3.77 MB

     Dynamical RAM for     wfc (w. buffer):    1194.38 MB

     Dynamical RAM for           str. fact:       4.69 MB

     Dynamical RAM for           local pot:       0.00 MB

     Dynamical RAM for          nlocal pot:       9.25 MB

     Dynamical RAM for                qrad:      10.54 MB

     Dynamical RAM for          rho,v,vnew:      15.05 MB

     Dynamical RAM for               rhoin:       5.02 MB

     Dynamical RAM for            rho*nmix:      37.54 MB

     Dynamical RAM for           G-vectors:       4.53 MB

     Dynamical RAM for          h,s,v(r/c):       2.38 MB

     Dynamical RAM for          <psi|beta>:       0.49 MB

     Dynamical RAM for                 psi:       7.54 MB

     Dynamical RAM for                hpsi:       7.54 MB

     Dynamical RAM for                spsi:       7.54 MB

     Dynamical RAM for      wfcinit/wfcrot:       9.49 MB

     Dynamical RAM for           addusdens:     238.15 MB

     Dynamical RAM for          addusforce:     273.47 MB

     Dynamical RAM for         addusstress:     237.57 MB

     Estimated static dynamical RAM per process >       1.26 GB

     Estimated max dynamical RAM per process >       1.53 GB

     Estimated total dynamical RAM >      24.51 GB

     Check: negative core charge=   -0.000003
     Generating pointlists ...
     new r_m :   0.0770 (alat units)  1.4378 (a.u.) for type    1
     new r_m :   0.0923 (alat units)  1.7244 (a.u.) for type    2
     new r_m :   0.0613 (alat units)  1.1457 (a.u.) for type    3
     new r_m :   0.0613 (alat units)  1.1457 (a.u.) for type    4

     Initial potential from superposition of free atoms

     starting charge  188.99132, renormalised to  189.00000
     Starting wfcs are  137 randomized atomic wfcs
     Checking if some PAW data can be deallocated... 
       PAW data deallocated on   13 nodes for type:  1
       PAW data deallocated on    4 nodes for type:  3

     total cpu time spent up to now is      210.9 secs

     Self-consistent Calculation

     iteration #  1     ecut=   100.00 Ry     beta= 0.40
     Davidson diagonalization with overlap
     ethr =  1.00E-02,  avg # of iterations =  3.3

     negative rho (up, down):  0.000E+00 8.545E-05

     total cpu time spent up to now is      905.5 secs

     total energy              =   -2124.00458424 Ry
     estimated scf accuracy    <       6.76136197 Ry

     total magnetization       =    19.00 Bohr mag/cell
     absolute magnetization    =    19.00 Bohr mag/cell

     iteration #  2     ecut=   100.00 Ry     beta= 0.40
     Davidson diagonalization with overlap
     ethr =  3.58E-03,  avg # of iterations =  2.0

     negative rho (up, down):  0.000E+00 4.764E-05

     total cpu time spent up to now is     1518.6 secs

     total energy              =   -2121.53826733 Ry
     estimated scf accuracy    <      31.28542702 Ry

     total magnetization       =     9.50 Bohr mag/cell
     absolute magnetization    =    11.02 Bohr mag/cell

     iteration #  3     ecut=   100.00 Ry     beta= 0.40
     Davidson diagonalization with overlap
     ethr =  3.58E-03,  avg # of iterations =  3.2

     negative rho (up, down):  0.000E+00 2.787E-05

     total cpu time spent up to now is     2073.6 secs

     total energy              =   -2123.27593134 Ry
     estimated scf accuracy    <      76.69555420 Ry

     total magnetization       =     1.00 Bohr mag/cell
     absolute magnetization    =     4.85 Bohr mag/cell

     iteration #  4     ecut=   100.00 Ry     beta= 0.40
     Davidson diagonalization with overlap
     ethr =  3.58E-03,  avg # of iterations =  1.5

     negative rho (up, down):  0.000E+00 4.909E-05

     total cpu time spent up to now is     2558.1 secs

     total energy              =   -2125.24218674 Ry
     estimated scf accuracy    <       8.87339791 Ry

     total magnetization       =    15.19 Bohr mag/cell
     absolute magnetization    =    15.33 Bohr mag/cell

     iteration #  5     ecut=   100.00 Ry     beta= 0.40
     Davidson diagonalization with overlap
     ethr =  3.58E-03,  avg # of iterations =  2.0

     negative rho (up, down):  0.000E+00 9.530E-05

     total cpu time spent up to now is     3080.3 secs

     total energy              =   -2125.61707989 Ry
     estimated scf accuracy    <      11.50709108 Ry

     total magnetization       =    14.42 Bohr mag/cell
     absolute magnetization    =    14.60 Bohr mag/cell

     iteration #  6     ecut=   100.00 Ry     beta= 0.40
     Davidson diagonalization with overlap
     ethr =  3.58E-03,  avg # of iterations =  1.5

     negative rho (up, down):  0.000E+00 2.224E-04

     total cpu time spent up to now is     3555.9 secs

     total energy              =   -2126.06641330 Ry
     estimated scf accuracy    <       0.49174280 Ry

     total magnetization       =    19.00 Bohr mag/cell
     absolute magnetization    =    19.00 Bohr mag/cell

     iteration #  7     ecut=   100.00 Ry     beta= 0.40
     Davidson diagonalization with overlap
     c_bands:  1 eigenvalues not converged
     ethr =  2.60E-04,  avg # of iterations =  6.4

     negative rho (up, down):  0.000E+00 4.181E-04

     total cpu time spent up to now is     4173.9 secs

     total energy              =   -2126.07603300 Ry
     estimated scf accuracy    <       0.13644128 Ry

     total magnetization       =    19.00 Bohr mag/cell
     absolute magnetization    =    19.00 Bohr mag/cell

     iteration #  8     ecut=   100.00 Ry     beta= 0.40
     Davidson diagonalization with overlap
     c_bands:  1 eigenvalues not converged
     c_bands:  1 eigenvalues not converged
     ethr =  7.22E-05,  avg # of iterations = 11.5

     negative rho (up, down):  0.000E+00 5.023E-04

     total cpu time spent up to now is     5055.2 secs

     total energy              =   -2126.07127786 Ry
     estimated scf accuracy    <       0.66229016 Ry

     total magnetization       =    19.00 Bohr mag/cell
     absolute magnetization    =    19.01 Bohr mag/cell

     iteration #  9     ecut=   100.00 Ry     beta= 0.40
     Davidson diagonalization with overlap
     ethr =  7.22E-05,  avg # of iterations =  1.1

     negative rho (up, down):  0.000E+00 7.174E-04

     total cpu time spent up to now is     5497.9 secs

     total energy              =   -2126.09480088 Ry
     estimated scf accuracy    <       0.04985924 Ry

     total magnetization       =    19.00 Bohr mag/cell
     absolute magnetization    =    19.01 Bohr mag/cell

     iteration # 10     ecut=   100.00 Ry     beta= 0.40
     Davidson diagonalization with overlap
     c_bands:  1 eigenvalues not converged
     c_bands:  1 eigenvalues not converged
     c_bands:  1 eigenvalues not converged
     ethr =  2.64E-05,  avg # of iterations =  3.3

     negative rho (up, down):  0.000E+00 8.854E-04

     total cpu time spent up to now is     6012.8 secs

     total energy              =   -2126.09819067 Ry
     estimated scf accuracy    <       0.03197507 Ry

     total magnetization       =    19.00 Bohr mag/cell
     absolute magnetization    =    19.02 Bohr mag/cell

     iteration # 11     ecut=   100.00 Ry     beta= 0.40
     Davidson diagonalization with overlap
     c_bands:  1 eigenvalues not converged
     c_bands:  1 eigenvalues not converged
     c_bands:  1 eigenvalues not converged
     c_bands:  1 eigenvalues not converged
     ethr =  1.69E-05,  avg # of iterations =  2.9

     negative rho (up, down):  0.000E+00 9.375E-04

     total cpu time spent up to now is     6528.5 secs

     total energy              =   -2126.10103221 Ry
     estimated scf accuracy    <       0.01045476 Ry

     total magnetization       =    19.00 Bohr mag/cell
     absolute magnetization    =    19.03 Bohr mag/cell

     iteration # 12     ecut=   100.00 Ry     beta= 0.40
     Davidson diagonalization with overlap
     c_bands:  1 eigenvalues not converged
     c_bands:  1 eigenvalues not converged
     c_bands:  1 eigenvalues not converged
     c_bands:  1 eigenvalues not converged
     c_bands:  1 eigenvalues not converged
     c_bands:  1 eigenvalues not converged
     c_bands:  1 eigenvalues not converged
     c_bands:  1 eigenvalues not converged
     c_bands:  1 eigenvalues not converged
     c_bands:  1 eigenvalues not converged
     c_bands:  1 eigenvalues not converged
     c_bands:  1 eigenvalues not converged
     c_bands:  1 eigenvalues not converged
     c_bands:  1 eigenvalues not converged
     c_bands:  1 eigenvalues not converged
     c_bands:  1 eigenvalues not converged
     c_bands:  1 eigenvalues not converged
     c_bands:  1 eigenvalues not converged
     c_bands:  1 eigenvalues not converged
     c_bands:  1 eigenvalues not converged
     c_bands:  1 eigenvalues not converged
     ethr =  5.53E-06,  avg # of iterations = 11.9

     negative rho (up, down):  0.000E+00 9.470E-04

     total cpu time spent up to now is     7352.8 secs

     total energy              =   -2126.10217996 Ry
     estimated scf accuracy    <       0.00312235 Ry

     total magnetization       =    19.00 Bohr mag/cell
     absolute magnetization    =    19.03 Bohr mag/cell

     iteration # 13     ecut=   100.00 Ry     beta= 0.40
     Davidson diagonalization with overlap
     c_bands:  1 eigenvalues not converged
     c_bands:  1 eigenvalues not converged
     c_bands:  1 eigenvalues not converged
     ethr =  1.65E-06,  avg # of iterations =  6.6

     negative rho (up, down):  0.000E+00 9.383E-04

     total cpu time spent up to now is     8068.7 secs

     total energy              =   -2126.10264771 Ry
     estimated scf accuracy    <       0.00527783 Ry

     total magnetization       =    19.00 Bohr mag/cell
     absolute magnetization    =    19.04 Bohr mag/cell

     iteration # 14     ecut=   100.00 Ry     beta= 0.40
     Davidson diagonalization with overlap
     ethr =  1.65E-06,  avg # of iterations =  1.1

     negative rho (up, down):  0.000E+00 9.264E-04

     total cpu time spent up to now is     8513.3 secs

     total energy              =   -2126.10272406 Ry
     estimated scf accuracy    <       0.00070298 Ry

     total magnetization       =    19.00 Bohr mag/cell
     absolute magnetization    =    19.04 Bohr mag/cell

     iteration # 15     ecut=   100.00 Ry     beta= 0.40
     Davidson diagonalization with overlap
     ethr =  3.72E-07,  avg # of iterations =  3.0

     negative rho (up, down):  0.000E+00 9.259E-04

     total cpu time spent up to now is     9060.8 secs

     total energy              =   -2126.10279781 Ry
     estimated scf accuracy    <       0.00028759 Ry

     total magnetization       =    19.00 Bohr mag/cell
     absolute magnetization    =    19.04 Bohr mag/cell

     iteration # 16     ecut=   100.00 Ry     beta= 0.40
     Davidson diagonalization with overlap
     ethr =  1.52E-07,  avg # of iterations =  2.1

     negative rho (up, down):  0.000E+00 9.198E-04

     total cpu time spent up to now is     9558.2 secs

     total energy              =   -2126.10281444 Ry
     estimated scf accuracy    <       0.00011218 Ry

     total magnetization       =    19.00 Bohr mag/cell
     absolute magnetization    =    19.04 Bohr mag/cell

     iteration # 17     ecut=   100.00 Ry     beta= 0.40
     Davidson diagonalization with overlap
     ethr =  5.94E-08,  avg # of iterations =  2.5

     negative rho (up, down):  0.000E+00 9.204E-04

     total cpu time spent up to now is    10077.4 secs

     total energy              =   -2126.10282165 Ry
     estimated scf accuracy    <       0.00024018 Ry

     total magnetization       =    19.00 Bohr mag/cell
     absolute magnetization    =    19.04 Bohr mag/cell

     iteration # 18     ecut=   100.00 Ry     beta= 0.40
     Davidson diagonalization with overlap
     ethr =  5.94E-08,  avg # of iterations =  1.0

     negative rho (up, down):  0.000E+00 9.184E-04

     total cpu time spent up to now is    10515.1 secs

     total energy              =   -2126.10282635 Ry
     estimated scf accuracy    <       0.00001564 Ry

     total magnetization       =    19.00 Bohr mag/cell
     absolute magnetization    =    19.04 Bohr mag/cell

     iteration # 19     ecut=   100.00 Ry     beta= 0.40
     Davidson diagonalization with overlap
     ethr =  8.28E-09,  avg # of iterations =  3.1

     negative rho (up, down):  0.000E+00 9.178E-04

     total cpu time spent up to now is    11115.7 secs

     total energy              =   -2126.10282994 Ry
     estimated scf accuracy    <       0.00001659 Ry

     total magnetization       =    19.00 Bohr mag/cell
     absolute magnetization    =    19.04 Bohr mag/cell

     iteration # 20     ecut=   100.00 Ry     beta= 0.40
     Davidson diagonalization with overlap
     ethr =  8.28E-09,  avg # of iterations =  1.0

     negative rho (up, down):  0.000E+00 9.181E-04

     total cpu time spent up to now is    11553.6 secs

     total energy              =   -2126.10283022 Ry
     estimated scf accuracy    <       0.00000532 Ry

     total magnetization       =    19.00 Bohr mag/cell
     absolute magnetization    =    19.04 Bohr mag/cell

     iteration # 21     ecut=   100.00 Ry     beta= 0.40
     Davidson diagonalization with overlap
     ethr =  2.82E-09,  avg # of iterations =  1.2

     negative rho (up, down):  0.000E+00 9.174E-04

     total cpu time spent up to now is    12005.2 secs

     total energy              =   -2126.10283045 Ry
     estimated scf accuracy    <       0.00000342 Ry

     total magnetization       =    19.00 Bohr mag/cell
     absolute magnetization    =    19.04 Bohr mag/cell

     iteration # 22     ecut=   100.00 Ry     beta= 0.40
     Davidson diagonalization with overlap
     ethr =  1.81E-09,  avg # of iterations =  1.1

     negative rho (up, down):  0.000E+00 9.175E-04

     total cpu time spent up to now is    12453.8 secs

     total energy              =   -2126.10283061 Ry
     estimated scf accuracy    <       0.00000063 Ry

     total magnetization       =    19.00 Bohr mag/cell
     absolute magnetization    =    19.04 Bohr mag/cell

     iteration # 23     ecut=   100.00 Ry     beta= 0.40
     Davidson diagonalization with overlap
     ethr =  3.36E-10,  avg # of iterations =  3.1

     negative rho (up, down):  0.000E+00 9.174E-04

     total cpu time spent up to now is    13031.6 secs

     total energy              =   -2126.10283072 Ry
     estimated scf accuracy    <       0.00000011 Ry

     total magnetization       =    19.00 Bohr mag/cell
     absolute magnetization    =    19.04 Bohr mag/cell

     iteration # 24     ecut=   100.00 Ry     beta= 0.40
     Davidson diagonalization with overlap
     ethr =  5.87E-11,  avg # of iterations =  3.7

     negative rho (up, down):  0.000E+00 9.174E-04

     total cpu time spent up to now is    13690.3 secs

     total energy              =   -2126.10283075 Ry
     estimated scf accuracy    <       0.00000002 Ry

     total magnetization       =    19.00 Bohr mag/cell
     absolute magnetization    =    19.04 Bohr mag/cell

     iteration # 25     ecut=   100.00 Ry     beta= 0.40
     Davidson diagonalization with overlap
     ethr =  8.31E-12,  avg # of iterations =  3.2

     negative rho (up, down):  0.000E+00 9.174E-04

     total cpu time spent up to now is    14327.9 secs

     total energy              =   -2126.10283075 Ry
     estimated scf accuracy    <          3.4E-09 Ry

     total magnetization       =    19.00 Bohr mag/cell
     absolute magnetization    =    19.04 Bohr mag/cell

     iteration # 26     ecut=   100.00 Ry     beta= 0.40
     Davidson diagonalization with overlap
     ethr =  1.80E-12,  avg # of iterations =  3.3

     negative rho (up, down):  0.000E+00 9.174E-04

     total cpu time spent up to now is    14915.9 secs

     total energy              =   -2126.10283075 Ry
     estimated scf accuracy    <          2.8E-09 Ry

     total magnetization       =    19.00 Bohr mag/cell
     absolute magnetization    =    19.04 Bohr mag/cell

     iteration # 27     ecut=   100.00 Ry     beta= 0.40
     Davidson diagonalization with overlap
     ethr =  1.51E-12,  avg # of iterations =  1.1

     negative rho (up, down):  0.000E+00 9.174E-04

     total cpu time spent up to now is    15363.4 secs

     total energy              =   -2126.10283076 Ry
     estimated scf accuracy    <          2.7E-09 Ry

     total magnetization       =    19.00 Bohr mag/cell
     absolute magnetization    =    19.04 Bohr mag/cell

     iteration # 28     ecut=   100.00 Ry     beta= 0.40
     Davidson diagonalization with overlap
     ethr =  1.42E-12,  avg # of iterations =  1.0

     negative rho (up, down):  0.000E+00 9.174E-04

     total cpu time spent up to now is    15800.7 secs

     total energy              =   -2126.10283076 Ry
     estimated scf accuracy    <          6.2E-10 Ry

     total magnetization       =    19.00 Bohr mag/cell
     absolute magnetization    =    19.04 Bohr mag/cell

     iteration # 29     ecut=   100.00 Ry     beta= 0.40
     Davidson diagonalization with overlap
     ethr =  3.27E-13,  avg # of iterations =  1.9

     negative rho (up, down):  0.000E+00 9.174E-04

     total cpu time spent up to now is    16304.5 secs

     total energy              =   -2126.10283076 Ry
     estimated scf accuracy    <          3.0E-10 Ry

     total magnetization       =    19.00 Bohr mag/cell
     absolute magnetization    =    19.04 Bohr mag/cell

     iteration # 30     ecut=   100.00 Ry     beta= 0.40
     Davidson diagonalization with overlap
     ethr =  1.59E-13,  avg # of iterations =  2.2

     negative rho (up, down):  0.000E+00 9.174E-04

     Magnetic moment per site:
     atom:    1    charge:    7.8977    magn:    0.0006    constr:    0.0000
     atom:    2    charge:   12.6686    magn:    3.5841    constr:    0.0000
     atom:    3    charge:   12.6755    magn:    3.5667    constr:    0.0000
     atom:    4    charge:   12.6861    magn:    3.5401    constr:    0.0000
     atom:    5    charge:   12.6759    magn:    3.5680    constr:    0.0000
     atom:    6    charge:    0.7382    magn:    0.0103    constr:    0.0000
     atom:    7    charge:    0.7391    magn:    0.0079    constr:    0.0000
     atom:    8    charge:    0.7401    magn:    0.0105    constr:    0.0000
     atom:    9    charge:    0.7362    magn:    0.0082    constr:    0.0000
     atom:   10    charge:    4.0331    magn:    0.1322    constr:    0.0000
     atom:   11    charge:    4.0443    magn:    0.0860    constr:    0.0000
     atom:   12    charge:    4.0345    magn:    0.1283    constr:    0.0000
     atom:   13    charge:    4.0296    magn:    0.0939    constr:    0.0000
     atom:   14    charge:    4.0737    magn:    0.0944    constr:    0.0000
     atom:   15    charge:    4.0851    magn:    0.1224    constr:    0.0000
     atom:   16    charge:    4.0796    magn:    0.0829    constr:    0.0000
     atom:   17    charge:    4.0849    magn:    0.1282    constr:    0.0000
     atom:   18    charge:    4.0075    magn:    0.1443    constr:    0.0000
     atom:   19    charge:    4.0084    magn:    0.1216    constr:    0.0000
     atom:   20    charge:    4.0122    magn:    0.1494    constr:    0.0000
     atom:   21    charge:    4.0097    magn:    0.1326    constr:    0.0000
     atom:   22    charge:    4.0109    magn:    0.1372    constr:    0.0000
     atom:   23    charge:    4.0168    magn:    0.1181    constr:    0.0000
     atom:   24    charge:    4.0081    magn:    0.1492    constr:    0.0000
     atom:   25    charge:    4.0127    magn:    0.1289    constr:    0.0000

     total cpu time spent up to now is    16827.4 secs

     End of self-consistent calculation

 ------ SPIN UP ------------


          k = 0.0000 0.0000 0.0000 ( 34615 PWs)   bands (ev):

   -84.4529 -84.4285 -84.4215 -84.2936 -50.6196 -50.5857 -50.5619 -50.4959
   -50.4094 -50.3773 -50.3713 -50.3626 -50.2989 -50.2975 -50.2509 -50.1450
   -44.2510 -16.3794 -16.2569 -16.2408 -16.0570 -15.8326 -15.6780 -15.5797
   -13.7403 -13.5086 -13.4128 -13.3841 -13.2531 -13.1836 -13.0335 -12.9865
   -12.9455 -12.9346 -12.7806 -12.7044  -3.7732  -3.3362  -3.0356  -2.6675
    -2.0521  -1.7620  -1.3340  -1.2551  -1.1836  -1.0422  -0.9744  -0.8159
    -0.6677  -0.6360  -0.3562  -0.0146   0.1575   0.1840   0.6809   0.7592
     0.8626   0.9106   1.0998   1.1601   1.1892   1.2477   1.3278   1.4171
     1.5192   1.8758   1.9123   1.9774   2.0266   2.0546   2.1329   2.2436
     2.2882   2.4135   2.6579   2.7945   2.8171   2.8561   2.9143   3.0205
     3.0600   3.2398   3.3348   3.3728   3.4650   3.5915   3.7619   3.7712
     3.8453   3.9340   3.9826   4.0737   4.2332   4.2928   4.3297   4.5047
     4.5420   4.7591   4.7703   5.0447   5.1787   5.3797   5.4592   5.5378
    10.0864  12.1235  12.5098  12.9658  13.1907  13.5245  14.1902  14.2783
    14.4303  14.5602

     occupation numbers 
     1.0000   1.0000   1.0000   1.0000   1.0000   1.0000   1.0000   1.0000
     1.0000   1.0000   1.0000   1.0000   1.0000   1.0000   1.0000   1.0000
     1.0000   1.0000   1.0000   1.0000   1.0000   1.0000   1.0000   1.0000
     1.0000   1.0000   1.0000   1.0000   1.0000   1.0000   1.0000   1.0000
     1.0000   1.0000   1.0000   1.0000   1.0000   1.0000   1.0000   1.0000
     1.0000   1.0000   1.0000   1.0000   1.0000   1.0000   1.0000   1.0000
     1.0000   1.0000   1.0000   1.0000   1.0000   1.0000   1.0000   1.0000
     1.0000   1.0000   1.0000   1.0000   1.0000   1.0000   1.0000   1.0000
     1.0000   1.0000   1.0000   1.0000   1.0000   1.0000   1.0000   1.0000
     1.0000   1.0000   1.0000   1.0000   1.0000   1.0000   1.0000   1.0000
     1.0000   1.0000   1.0000   1.0000   1.0000   1.0000   1.0000   1.0000
     1.0000   1.0000   1.0000   1.0000   1.0000   1.0000   1.0000   1.0000
     1.0000   1.0000   1.0000   1.0000   1.0000   1.0000   1.0000   1.0000
     0.0000   0.0000   0.0000   0.0000   0.0000   0.0000   0.0000   0.0000
     0.0000   0.0000

          k = 0.0000 0.0000 0.2220 ( 34593 PWs)   bands (ev):

   -84.4529 -84.4285 -84.4215 -84.2936 -50.6196 -50.5857 -50.5619 -50.4959
   -50.4094 -50.3773 -50.3713 -50.3626 -50.2989 -50.2975 -50.2509 -50.1450
   -44.2510 -16.3837 -16.2566 -16.2521 -16.0274 -15.8258 -15.6723 -15.5829
   -13.7364 -13.5109 -13.4188 -13.3822 -13.2643 -13.1911 -13.0462 -12.9816
   -12.9579 -12.9305 -12.7862 -12.7094  -3.7474  -3.3269  -3.0371  -2.6836
    -2.0032  -1.7392  -1.3379  -1.2468  -1.1756  -1.0719  -0.9087  -0.8241
    -0.6324  -0.6222  -0.4025   0.0119   0.1282   0.2017   0.6764   0.7694
     0.8763   0.9356   1.0948   1.1583   1.1883   1.2199   1.3179   1.4717
     1.5015   1.8575   1.8818   1.9513   1.9929   2.0248   2.1010   2.1513
     2.4036   2.4488   2.6156   2.7705   2.7940   2.8237   2.8782   3.0342
     3.0926   3.1926   3.3212   3.4635   3.5224   3.6150   3.6907   3.7710
     3.7907   3.9422   3.9838   4.0309   4.2242   4.2940   4.4029   4.5107
     4.5668   4.7522   4.8134   5.0323   5.1800   5.3585   5.4334   5.5150
    10.2384  12.1886  12.5836  12.9492  13.2579  13.5010  14.0702  14.2842
    14.3183  14.5116

     occupation numbers 
     1.0000   1.0000   1.0000   1.0000   1.0000   1.0000   1.0000   1.0000
     1.0000   1.0000   1.0000   1.0000   1.0000   1.0000   1.0000   1.0000
     1.0000   1.0000   1.0000   1.0000   1.0000   1.0000   1.0000   1.0000
     1.0000   1.0000   1.0000   1.0000   1.0000   1.0000   1.0000   1.0000
     1.0000   1.0000   1.0000   1.0000   1.0000   1.0000   1.0000   1.0000
     1.0000   1.0000   1.0000   1.0000   1.0000   1.0000   1.0000   1.0000
     1.0000   1.0000   1.0000   1.0000   1.0000   1.0000   1.0000   1.0000
     1.0000   1.0000   1.0000   1.0000   1.0000   1.0000   1.0000   1.0000
     1.0000   1.0000   1.0000   1.0000   1.0000   1.0000   1.0000   1.0000
     1.0000   1.0000   1.0000   1.0000   1.0000   1.0000   1.0000   1.0000
     1.0000   1.0000   1.0000   1.0000   1.0000   1.0000   1.0000   1.0000
     1.0000   1.0000   1.0000   1.0000   1.0000   1.0000   1.0000   1.0000
     1.0000   1.0000   1.0000   1.0000   1.0000   1.0000   1.0000   1.0000
     0.0000   0.0000   0.0000   0.0000   0.0000   0.0000   0.0000   0.0000
     0.0000   0.0000

          k = 0.0000 0.0000 0.4441 ( 34664 PWs)   bands (ev):

   -84.4529 -84.4285 -84.4215 -84.2936 -50.6196 -50.5857 -50.5619 -50.4959
   -50.4094 -50.3773 -50.3713 -50.3626 -50.2989 -50.2975 -50.2509 -50.1450
   -44.2510 -16.3989 -16.2625 -16.2555 -15.9657 -15.8065 -15.6585 -15.5925
   -13.7242 -13.5223 -13.4331 -13.3778 -13.2927 -13.2046 -13.0837 -12.9920
   -12.9625 -12.9185 -12.8024 -12.7227  -3.6745  -3.3099  -3.0371  -2.7355
    -1.8740  -1.6799  -1.3494  -1.2408  -1.1480  -1.0843  -0.8662  -0.7326
    -0.6056  -0.5471  -0.5149   0.0201   0.1075   0.2645   0.6711   0.8017
     0.8935   1.0055   1.0836   1.1510   1.1796   1.2262   1.2824   1.4782
     1.5518   1.7792   1.8326   1.9016   1.9326   1.9848   2.0114   2.0461
     2.3407   2.4177   2.6578   2.6915   2.7315   2.7530   2.9285   3.0451
     3.0975   3.1672   3.4199   3.4657   3.4919   3.6111   3.6634   3.7021
     3.8102   3.8959   3.9696   4.1063   4.2520   4.3071   4.5050   4.5322
     4.6461   4.7158   4.9035   5.0167   5.1769   5.3068   5.3569   5.4459
    10.6483  12.3572  12.7755  12.9706  13.3675  13.4914  13.7798  14.0972
    14.2384  14.3493

     occupation numbers 
     1.0000   1.0000   1.0000   1.0000   1.0000   1.0000   1.0000   1.0000
     1.0000   1.0000   1.0000   1.0000   1.0000   1.0000   1.0000   1.0000
     1.0000   1.0000   1.0000   1.0000   1.0000   1.0000   1.0000   1.0000
     1.0000   1.0000   1.0000   1.0000   1.0000   1.0000   1.0000   1.0000
     1.0000   1.0000   1.0000   1.0000   1.0000   1.0000   1.0000   1.0000
     1.0000   1.0000   1.0000   1.0000   1.0000   1.0000   1.0000   1.0000
     1.0000   1.0000   1.0000   1.0000   1.0000   1.0000   1.0000   1.0000
     1.0000   1.0000   1.0000   1.0000   1.0000   1.0000   1.0000   1.0000
     1.0000   1.0000   1.0000   1.0000   1.0000   1.0000   1.0000   1.0000
     1.0000   1.0000   1.0000   1.0000   1.0000   1.0000   1.0000   1.0000
     1.0000   1.0000   1.0000   1.0000   1.0000   1.0000   1.0000   1.0000
     1.0000   1.0000   1.0000   1.0000   1.0000   1.0000   1.0000   1.0000
     1.0000   1.0000   1.0000   1.0000   1.0000   1.0000   1.0000   1.0000
     0.0000   0.0000   0.0000   0.0000   0.0000   0.0000   0.0000   0.0000
     0.0000   0.0000

          k = 0.0000 0.0000 0.6661 ( 34722 PWs)   bands (ev):

   -84.4529 -84.4285 -84.4215 -84.2936 -50.6196 -50.5857 -50.5619 -50.4959
   -50.4094 -50.3773 -50.3713 -50.3626 -50.2989 -50.2975 -50.2509 -50.1450
   -44.2510 -16.4197 -16.2598 -16.2533 -15.9077 -15.7757 -15.6478 -15.6055
   -13.7027 -13.5520 -13.4444 -13.3775 -13.3195 -13.2102 -13.1334 -13.0308
   -12.9346 -12.9023 -12.8279 -12.7403  -3.5687  -3.3099  -3.0264  -2.8169
    -1.7296  -1.6105  -1.3516  -1.2532  -1.0917  -1.0596  -0.8537  -0.7108
    -0.5806  -0.5207  -0.4514  -0.1236   0.2476   0.3997   0.6712   0.8572
     0.9324   0.9992   1.0855   1.1338   1.1863   1.2179   1.2692   1.4958
     1.5641   1.6603   1.7224   1.7992   1.9119   1.9499   1.9929   2.0274
     2.0737   2.2925   2.5432   2.6436   2.6534   2.9189   2.9444   3.0817
     3.1282   3.2205   3.2822   3.3622   3.5200   3.5451   3.6222   3.6963
     3.8396   3.8549   4.0696   4.2464   4.3275   4.4132   4.5031   4.6074
     4.6573   4.7707   4.9683   5.0278   5.1507   5.2252   5.2714   5.3337
    11.2171  12.5615  12.8964  13.1174  13.3118  13.5038  13.6943  13.9234
    13.9904  14.0522

     occupation numbers 
     1.0000   1.0000   1.0000   1.0000   1.0000   1.0000   1.0000   1.0000
     1.0000   1.0000   1.0000   1.0000   1.0000   1.0000   1.0000   1.0000
     1.0000   1.0000   1.0000   1.0000   1.0000   1.0000   1.0000   1.0000
     1.0000   1.0000   1.0000   1.0000   1.0000   1.0000   1.0000   1.0000
     1.0000   1.0000   1.0000   1.0000   1.0000   1.0000   1.0000   1.0000
     1.0000   1.0000   1.0000   1.0000   1.0000   1.0000   1.0000   1.0000
     1.0000   1.0000   1.0000   1.0000   1.0000   1.0000   1.0000   1.0000
     1.0000   1.0000   1.0000   1.0000   1.0000   1.0000   1.0000   1.0000
     1.0000   1.0000   1.0000   1.0000   1.0000   1.0000   1.0000   1.0000
     1.0000   1.0000   1.0000   1.0000   1.0000   1.0000   1.0000   1.0000
     1.0000   1.0000   1.0000   1.0000   1.0000   1.0000   1.0000   1.0000
     1.0000   1.0000   1.0000   1.0000   1.0000   1.0000   1.0000   1.0000
     1.0000   1.0000   1.0000   1.0000   1.0000   1.0000   1.0000   1.0000
     0.0000   0.0000   0.0000   0.0000   0.0000   0.0000   0.0000   0.0000
     0.0000   0.0000

          k = 0.0000 0.0000 0.8882 ( 34692 PWs)   bands (ev):

   -84.4529 -84.4285 -84.4215 -84.2936 -50.6196 -50.5857 -50.5619 -50.4959
   -50.4094 -50.3773 -50.3713 -50.3626 -50.2989 -50.2975 -50.2509 -50.1450
   -44.2510 -16.4334 -16.2569 -16.2489 -15.8763 -15.7400 -15.6579 -15.6091
   -13.6764 -13.5892 -13.4489 -13.3855 -13.3255 -13.2059 -13.1730 -13.0583
   -12.9018 -12.8895 -12.8586 -12.7539  -3.4587  -3.3470  -3.0020  -2.8951
    -1.6482  -1.5662  -1.3437  -1.2632  -1.0067  -0.9926  -0.8758  -0.8615
    -0.4948  -0.4307  -0.3792  -0.2813   0.4443   0.6146   0.6721   0.8693
     0.9226   0.9753   1.0350   1.0661   1.1221   1.1894   1.3124   1.4868
     1.5529   1.6304   1.6494   1.7109   1.8235   1.9137   1.9475   1.9968
     2.1226   2.2885   2.3830   2.4873   2.6848   2.8607   3.0658   3.1578
     3.1789   3.1995   3.2651   3.3061   3.3735   3.4891   3.6430   3.6960
     3.8445   3.8560   4.2024   4.2719   4.3705   4.4815   4.5964   4.6381
     4.6853   4.9081   4.9634   5.0297   5.0584   5.1658   5.1983   5.2572
    11.8453  12.4410  12.8710  13.1295  13.4733  13.5191  13.6915  13.7757
    13.9591  13.9866

     occupation numbers 
     1.0000   1.0000   1.0000   1.0000   1.0000   1.0000   1.0000   1.0000
     1.0000   1.0000   1.0000   1.0000   1.0000   1.0000   1.0000   1.0000
     1.0000   1.0000   1.0000   1.0000   1.0000   1.0000   1.0000   1.0000
     1.0000   1.0000   1.0000   1.0000   1.0000   1.0000   1.0000   1.0000
     1.0000   1.0000   1.0000   1.0000   1.0000   1.0000   1.0000   1.0000
     1.0000   1.0000   1.0000   1.0000   1.0000   1.0000   1.0000   1.0000
     1.0000   1.0000   1.0000   1.0000   1.0000   1.0000   1.0000   1.0000
     1.0000   1.0000   1.0000   1.0000   1.0000   1.0000   1.0000   1.0000
     1.0000   1.0000   1.0000   1.0000   1.0000   1.0000   1.0000   1.0000
     1.0000   1.0000   1.0000   1.0000   1.0000   1.0000   1.0000   1.0000
     1.0000   1.0000   1.0000   1.0000   1.0000   1.0000   1.0000   1.0000
     1.0000   1.0000   1.0000   1.0000   1.0000   1.0000   1.0000   1.0000
     1.0000   1.0000   1.0000   1.0000   1.0000   1.0000   1.0000   1.0000
     0.0000   0.0000   0.0000   0.0000   0.0000   0.0000   0.0000   0.0000
     0.0000   0.0000

          k = 0.0000 0.2271 0.0000 ( 34607 PWs)   bands (ev):

   -84.4529 -84.4285 -84.4215 -84.2936 -50.6196 -50.5857 -50.5619 -50.4959
   -50.4094 -50.3773 -50.3713 -50.3626 -50.2989 -50.2975 -50.2509 -50.1450
   -44.2510 -16.3823 -16.2571 -16.2407 -16.0358 -15.8284 -15.6792 -15.5996
   -13.7353 -13.5080 -13.4213 -13.4047 -13.2505 -13.1794 -13.0405 -12.9786
   -12.9538 -12.9080 -12.7838 -12.7109  -3.7513  -3.3558  -3.0116  -2.6731
    -2.0342  -1.7695  -1.3425  -1.2635  -1.1353  -1.0327  -0.9635  -0.8103
    -0.6933  -0.5654  -0.3106   0.0098   0.0722   0.2531   0.6831   0.7782
     0.7979   0.9192   0.9943   1.0681   1.1051   1.2765   1.3996   1.4697
     1.6102   1.8709   1.9378   1.9498   2.0119   2.0383   2.0814   2.1532
     2.3163   2.4251   2.6498   2.7001   2.7872   2.8648   3.0024   3.0130
     3.1544   3.2015   3.2634   3.3113   3.4678   3.5909   3.7343   3.7583
     3.8532   3.8831   3.9523   4.1488   4.2664   4.2944   4.3490   4.5152
     4.5441   4.7372   4.8405   4.9607   5.1603   5.2741   5.5718   5.6100
    10.2353  12.2087  12.5842  12.9106  13.2409  13.6102  14.1322  14.2818
    14.3270  14.5427

     occupation numbers 
     1.0000   1.0000   1.0000   1.0000   1.0000   1.0000   1.0000   1.0000
     1.0000   1.0000   1.0000   1.0000   1.0000   1.0000   1.0000   1.0000
     1.0000   1.0000   1.0000   1.0000   1.0000   1.0000   1.0000   1.0000
     1.0000   1.0000   1.0000   1.0000   1.0000   1.0000   1.0000   1.0000
     1.0000   1.0000   1.0000   1.0000   1.0000   1.0000   1.0000   1.0000
     1.0000   1.0000   1.0000   1.0000   1.0000   1.0000   1.0000   1.0000
     1.0000   1.0000   1.0000   1.0000   1.0000   1.0000   1.0000   1.0000
     1.0000   1.0000   1.0000   1.0000   1.0000   1.0000   1.0000   1.0000
     1.0000   1.0000   1.0000   1.0000   1.0000   1.0000   1.0000   1.0000
     1.0000   1.0000   1.0000   1.0000   1.0000   1.0000   1.0000   1.0000
     1.0000   1.0000   1.0000   1.0000   1.0000   1.0000   1.0000   1.0000
     1.0000   1.0000   1.0000   1.0000   1.0000   1.0000   1.0000   1.0000
     1.0000   1.0000   1.0000   1.0000   1.0000   1.0000   1.0000   1.0000
     0.0000   0.0000   0.0000   0.0000   0.0000   0.0000   0.0000   0.0000
     0.0000   0.0000

          k = 0.0000 0.2271 0.2220 ( 34613 PWs)   bands (ev):

   -84.4529 -84.4285 -84.4215 -84.2936 -50.6196 -50.5857 -50.5619 -50.4959
   -50.4094 -50.3773 -50.3713 -50.3626 -50.2989 -50.2975 -50.2509 -50.1450
   -44.2510 -16.3900 -16.2569 -16.2499 -16.0014 -15.8189 -15.6742 -15.6080
   -13.7316 -13.5098 -13.4226 -13.4057 -13.2624 -13.1897 -13.0560 -12.9794
   -12.9572 -12.9060 -12.7877 -12.7145  -3.7261  -3.3448  -3.0156  -2.6873
    -1.9874  -1.7456  -1.3444  -1.2509  -1.1295  -1.0617  -0.8980  -0.8186
    -0.6458  -0.5691  -0.3640   0.0159   0.0706   0.2614   0.6487   0.7796
     0.8530   0.9302   1.0075   1.0705   1.1145   1.2747   1.4190   1.4653
     1.5814   1.8664   1.9068   1.9274   1.9705   1.9954   2.0459   2.1160
     2.4055   2.4662   2.6191   2.6811   2.7939   2.8221   2.9368   3.0050
     3.1328   3.2043   3.2542   3.3913   3.4860   3.6184   3.6897   3.7330
     3.7884   3.9076   3.9755   4.1126   4.2566   4.3152   4.3966   4.5238
     4.5644   4.7324   4.8819   4.9667   5.1338   5.2612   5.5514   5.5946
    10.3816  12.2713  12.6616  12.9309  13.2850  13.5775  14.0286  14.2114
    14.3065  14.4937

     occupation numbers 
     1.0000   1.0000   1.0000   1.0000   1.0000   1.0000   1.0000   1.0000
     1.0000   1.0000   1.0000   1.0000   1.0000   1.0000   1.0000   1.0000
     1.0000   1.0000   1.0000   1.0000   1.0000   1.0000   1.0000   1.0000
     1.0000   1.0000   1.0000   1.0000   1.0000   1.0000   1.0000   1.0000
     1.0000   1.0000   1.0000   1.0000   1.0000   1.0000   1.0000   1.0000
     1.0000   1.0000   1.0000   1.0000   1.0000   1.0000   1.0000   1.0000
     1.0000   1.0000   1.0000   1.0000   1.0000   1.0000   1.0000   1.0000
     1.0000   1.0000   1.0000   1.0000   1.0000   1.0000   1.0000   1.0000
     1.0000   1.0000   1.0000   1.0000   1.0000   1.0000   1.0000   1.0000
     1.0000   1.0000   1.0000   1.0000   1.0000   1.0000   1.0000   1.0000
     1.0000   1.0000   1.0000   1.0000   1.0000   1.0000   1.0000   1.0000
     1.0000   1.0000   1.0000   1.0000   1.0000   1.0000   1.0000   1.0000
     1.0000   1.0000   1.0000   1.0000   1.0000   1.0000   1.0000   1.0000
     0.0000   0.0000   0.0000   0.0000   0.0000   0.0000   0.0000   0.0000
     0.0000   0.0000

          k = 0.0000 0.2271 0.4441 ( 34660 PWs)   bands (ev):

   -84.4529 -84.4285 -84.4215 -84.2936 -50.6196 -50.5857 -50.5619 -50.4959
   -50.4094 -50.3773 -50.3713 -50.3626 -50.2989 -50.2975 -50.2509 -50.1450
   -44.2510 -16.4042 -16.2600 -16.2554 -15.9422 -15.7924 -15.6643 -15.6194
   -13.7186 -13.5198 -13.4317 -13.4018 -13.2938 -13.2082 -13.0967 -13.0090
   -12.9419 -12.8971 -12.8010 -12.7245  -3.6550  -3.3226  -3.0198  -2.7375
    -1.8630  -1.6831  -1.3486  -1.2371  -1.1048  -1.0692  -0.8581  -0.7251
    -0.5759  -0.5475  -0.4868  -0.0438   0.1362   0.2869   0.6191   0.7917
     0.9023   0.9364   1.0771   1.0903   1.1494   1.2407   1.3912   1.5272
     1.5360   1.8027   1.8314   1.8869   1.9132   1.9466   1.9643   2.0693
     2.3529   2.4332   2.6462   2.6765   2.7537   2.7841   2.8631   3.0400
     3.0508   3.2094   3.3515   3.4543   3.4741   3.5113   3.6512   3.7169
     3.7452   3.9267   4.0309   4.0759   4.2614   4.3653   4.4904   4.5389
     4.6391   4.7077   4.9009   5.0116   5.0763   5.2486   5.4978   5.5498
    10.7793  12.4385  12.8601  13.0058  13.3821  13.5359  13.7800  14.0357
    14.2655  14.3538

     occupation numbers 
     1.0000   1.0000   1.0000   1.0000   1.0000   1.0000   1.0000   1.0000
     1.0000   1.0000   1.0000   1.0000   1.0000   1.0000   1.0000   1.0000
     1.0000   1.0000   1.0000   1.0000   1.0000   1.0000   1.0000   1.0000
     1.0000   1.0000   1.0000   1.0000   1.0000   1.0000   1.0000   1.0000
     1.0000   1.0000   1.0000   1.0000   1.0000   1.0000   1.0000   1.0000
     1.0000   1.0000   1.0000   1.0000   1.0000   1.0000   1.0000   1.0000
     1.0000   1.0000   1.0000   1.0000   1.0000   1.0000   1.0000   1.0000
     1.0000   1.0000   1.0000   1.0000   1.0000   1.0000   1.0000   1.0000
     1.0000   1.0000   1.0000   1.0000   1.0000   1.0000   1.0000   1.0000
     1.0000   1.0000   1.0000   1.0000   1.0000   1.0000   1.0000   1.0000
     1.0000   1.0000   1.0000   1.0000   1.0000   1.0000   1.0000   1.0000
     1.0000   1.0000   1.0000   1.0000   1.0000   1.0000   1.0000   1.0000
     1.0000   1.0000   1.0000   1.0000   1.0000   1.0000   1.0000   1.0000
     0.0000   0.0000   0.0000   0.0000   0.0000   0.0000   0.0000   0.0000
     0.0000   0.0000

          k = 0.0000 0.2271 0.6661 ( 34677 PWs)   bands (ev):

   -84.4529 -84.4285 -84.4215 -84.2936 -50.6196 -50.5857 -50.5619 -50.4959
   -50.4094 -50.3773 -50.3713 -50.3626 -50.2989 -50.2975 -50.2509 -50.1450
   -44.2510 -16.4213 -16.2588 -16.2531 -15.8921 -15.7514 -15.6674 -15.6227
   -13.6958 -13.5473 -13.4417 -13.3938 -13.3275 -13.2187 -13.1487 -13.0490
   -12.9156 -12.8842 -12.8229 -12.7383  -3.5525  -3.3136  -3.0155  -2.8174
    -1.7226  -1.6074  -1.3462  -1.2425  -1.0526  -1.0401  -0.8417  -0.6680
    -0.5920  -0.5202  -0.4397  -0.1508   0.2466   0.3650   0.6101   0.8200
     0.8405   0.9959   1.1148   1.1605   1.1952   1.2580   1.3493   1.4761
     1.5831   1.6603   1.7208   1.8272   1.8697   1.9284   1.9711   2.0339
     2.1120   2.2790   2.5284   2.6805   2.6834   2.8947   2.9190   3.0227
     3.0896   3.1638   3.3481   3.4156   3.4441   3.5003   3.5413   3.7206
     3.7836   3.8734   4.1075   4.2371   4.2922   4.4223   4.5078   4.5926
     4.6563   4.7457   4.8779   4.9693   5.1313   5.2367   5.4208   5.4846
    11.3355  12.6457  13.0033  13.1628  13.3693  13.5528  13.6924  13.8809
    14.0294  14.0479

     occupation numbers 
     1.0000   1.0000   1.0000   1.0000   1.0000   1.0000   1.0000   1.0000
     1.0000   1.0000   1.0000   1.0000   1.0000   1.0000   1.0000   1.0000
     1.0000   1.0000   1.0000   1.0000   1.0000   1.0000   1.0000   1.0000
     1.0000   1.0000   1.0000   1.0000   1.0000   1.0000   1.0000   1.0000
     1.0000   1.0000   1.0000   1.0000   1.0000   1.0000   1.0000   1.0000
     1.0000   1.0000   1.0000   1.0000   1.0000   1.0000   1.0000   1.0000
     1.0000   1.0000   1.0000   1.0000   1.0000   1.0000   1.0000   1.0000
     1.0000   1.0000   1.0000   1.0000   1.0000   1.0000   1.0000   1.0000
     1.0000   1.0000   1.0000   1.0000   1.0000   1.0000   1.0000   1.0000
     1.0000   1.0000   1.0000   1.0000   1.0000   1.0000   1.0000   1.0000
     1.0000   1.0000   1.0000   1.0000   1.0000   1.0000   1.0000   1.0000
     1.0000   1.0000   1.0000   1.0000   1.0000   1.0000   1.0000   1.0000
     1.0000   1.0000   1.0000   1.0000   1.0000   1.0000   1.0000   1.0000
     0.0000   0.0000   0.0000   0.0000   0.0000   0.0000   0.0000   0.0000
     0.0000   0.0000

          k = 0.0000 0.2271 0.8882 ( 34672 PWs)   bands (ev):

   -84.4529 -84.4285 -84.4215 -84.2936 -50.6196 -50.5857 -50.5619 -50.4959
   -50.4094 -50.3773 -50.3713 -50.3626 -50.2989 -50.2975 -50.2509 -50.1450
   -44.2510 -16.4314 -16.2568 -16.2489 -15.8655 -15.7288 -15.6700 -15.6177
   -13.6688 -13.5831 -13.4459 -13.3914 -13.3413 -13.2202 -13.1876 -13.0774
   -12.8870 -12.8749 -12.8484 -12.7495  -3.4483  -3.3396  -2.9982  -2.8929
    -1.6421  -1.5577  -1.3362  -1.2515  -0.9870  -0.9589  -0.8589  -0.8182
    -0.5188  -0.4437  -0.3589  -0.2751   0.3981   0.5110   0.6062   0.7123
     0.8574   1.0209   1.1042   1.1681   1.2502   1.2768   1.3245   1.4038
     1.5608   1.5867   1.6914   1.7566   1.8455   1.8915   1.9325   2.0021
     2.0807   2.2626   2.3684   2.5398   2.7046   2.8558   3.0161   3.0703
     3.1321   3.2035   3.2511   3.3376   3.3997   3.5020   3.5455   3.7233
     3.7994   3.8535   4.2112   4.2770   4.3790   4.4776   4.5399   4.5931
     4.6287   4.7741   4.8651   4.9322   5.1985   5.2361   5.3507   5.4256
    11.9546  12.5505  12.9552  13.2171  13.5049  13.5613  13.7430  13.8017
    13.9052  14.0017

     occupation numbers 
     1.0000   1.0000   1.0000   1.0000   1.0000   1.0000   1.0000   1.0000
     1.0000   1.0000   1.0000   1.0000   1.0000   1.0000   1.0000   1.0000
     1.0000   1.0000   1.0000   1.0000   1.0000   1.0000   1.0000   1.0000
     1.0000   1.0000   1.0000   1.0000   1.0000   1.0000   1.0000   1.0000
     1.0000   1.0000   1.0000   1.0000   1.0000   1.0000   1.0000   1.0000
     1.0000   1.0000   1.0000   1.0000   1.0000   1.0000   1.0000   1.0000
     1.0000   1.0000   1.0000   1.0000   1.0000   1.0000   1.0000   1.0000
     1.0000   1.0000   1.0000   1.0000   1.0000   1.0000   1.0000   1.0000
     1.0000   1.0000   1.0000   1.0000   1.0000   1.0000   1.0000   1.0000
     1.0000   1.0000   1.0000   1.0000   1.0000   1.0000   1.0000   1.0000
     1.0000   1.0000   1.0000   1.0000   1.0000   1.0000   1.0000   1.0000
     1.0000   1.0000   1.0000   1.0000   1.0000   1.0000   1.0000   1.0000
     1.0000   1.0000   1.0000   1.0000   1.0000   1.0000   1.0000   1.0000
     0.0000   0.0000   0.0000   0.0000   0.0000   0.0000   0.0000   0.0000
     0.0000   0.0000

          k = 0.0000 0.4542 0.0000 ( 34657 PWs)   bands (ev):

   -84.4529 -84.4285 -84.4215 -84.2936 -50.6196 -50.5857 -50.5619 -50.4959
   -50.4094 -50.3773 -50.3713 -50.3626 -50.2989 -50.2975 -50.2509 -50.1450
   -44.2510 -16.3881 -16.2575 -16.2406 -15.9795 -15.8198 -15.6887 -15.6458
   -13.7179 -13.5187 -13.4764 -13.4023 -13.2439 -13.1642 -13.0646 -12.9873
   -12.9268 -12.8654 -12.7983 -12.7251  -3.6911  -3.4110  -2.9470  -2.6989
    -1.9865  -1.7908  -1.3569  -1.2804  -1.0466  -0.9883  -0.9292  -0.7720
    -0.7208  -0.4324  -0.2385  -0.0918   0.1175   0.3627   0.6543   0.7168
     0.7618   0.8313   0.8776   1.0053   1.0595   1.3093   1.3901   1.5831
     1.6854   1.7103   1.8066   1.8835   1.9453   2.0614   2.1369   2.2014
     2.3844   2.4219   2.6083   2.6483   2.7788   2.8176   2.8825   3.0210
     3.1445   3.2291   3.2540   3.3430   3.4656   3.5584   3.6499   3.6768
     3.7909   3.8131   4.1307   4.1937   4.2663   4.3439   4.3763   4.5222
     4.5684   4.6974   4.7580   4.8873   5.0781   5.4251   5.6437   5.6741
    10.6450  12.4256  12.5338  12.7896  13.4194  13.8199  13.9783  14.1329
    14.4380  14.5329

     occupation numbers 
     1.0000   1.0000   1.0000   1.0000   1.0000   1.0000   1.0000   1.0000
     1.0000   1.0000   1.0000   1.0000   1.0000   1.0000   1.0000   1.0000
     1.0000   1.0000   1.0000   1.0000   1.0000   1.0000   1.0000   1.0000
     1.0000   1.0000   1.0000   1.0000   1.0000   1.0000   1.0000   1.0000
     1.0000   1.0000   1.0000   1.0000   1.0000   1.0000   1.0000   1.0000
     1.0000   1.0000   1.0000   1.0000   1.0000   1.0000   1.0000   1.0000
     1.0000   1.0000   1.0000   1.0000   1.0000   1.0000   1.0000   1.0000
     1.0000   1.0000   1.0000   1.0000   1.0000   1.0000   1.0000   1.0000
     1.0000   1.0000   1.0000   1.0000   1.0000   1.0000   1.0000   1.0000
     1.0000   1.0000   1.0000   1.0000   1.0000   1.0000   1.0000   1.0000
     1.0000   1.0000   1.0000   1.0000   1.0000   1.0000   1.0000   1.0000
     1.0000   1.0000   1.0000   1.0000   1.0000   1.0000   1.0000   1.0000
     1.0000   1.0000   1.0000   1.0000   1.0000   1.0000   1.0000   1.0000
     0.0000   0.0000   0.0000   0.0000   0.0000   0.0000   0.0000   0.0000
     0.0000   0.0000

          k = 0.0000 0.4542 0.2220 ( 34661 PWs)   bands (ev):

   -84.4529 -84.4285 -84.4215 -84.2936 -50.6196 -50.5857 -50.5619 -50.4959
   -50.4094 -50.3773 -50.3713 -50.3626 -50.2989 -50.2975 -50.2509 -50.1450
   -44.2510 -16.3944 -16.2571 -16.2485 -15.9465 -15.8081 -15.6853 -15.6558
   -13.7137 -13.5183 -13.4736 -13.4051 -13.2585 -13.1785 -13.0821 -13.0011
   -12.9185 -12.8644 -12.7994 -12.7257  -3.6674  -3.3965  -2.9546  -2.7100
    -1.9458  -1.7643  -1.3513  -1.2645  -1.0499  -0.9991  -0.8700  -0.7836
    -0.6730  -0.4477  -0.2895  -0.1151   0.1376   0.3572   0.5912   0.7176
     0.7743   0.8496   0.9554   1.0294   1.0760   1.3336   1.3812   1.5415
     1.6302   1.7179   1.7861   1.8702   1.9271   2.0427   2.1063   2.2158
     2.3953   2.4859   2.5684   2.6822   2.7798   2.8146   2.8905   2.9724
     3.0924   3.1916   3.2411   3.3356   3.4723   3.5695   3.6346   3.6756
     3.7102   3.8503   4.1364   4.1942   4.2743   4.3636   4.3995   4.5497
     4.5615   4.6979   4.7428   4.8653   5.1211   5.4170   5.6259   5.6731
    10.7767  12.4807  12.6068  12.8727  13.4473  13.7605  13.9516  14.0854
    14.3529  14.4217

     occupation numbers 
     1.0000   1.0000   1.0000   1.0000   1.0000   1.0000   1.0000   1.0000
     1.0000   1.0000   1.0000   1.0000   1.0000   1.0000   1.0000   1.0000
[...]
     atom   13 type  3   force =    -0.01397781    0.00049720    0.00357593
     atom   14 type  3   force =    -0.11920422    0.00441802    0.03203181
     atom   15 type  3   force =     0.11426850   -0.00153676    0.03902486
     atom   16 type  3   force =     0.11872852    0.00044198   -0.02613603
     atom   17 type  3   force =    -0.11042238    0.00121742   -0.03438672
     atom   18 type  3   force =     0.01270942    0.00709923   -0.00409880
     atom   19 type  3   force =    -0.01166952   -0.00678192   -0.00358486
     atom   20 type  3   force =    -0.01137380    0.00899637    0.00161366
     atom   21 type  3   force =     0.01091870   -0.00599750    0.00327640
     atom   22 type  3   force =    -0.01505307   -0.00894536    0.00281358
     atom   23 type  3   force =     0.01778084    0.00622081   -0.00025477
     atom   24 type  3   force =     0.01240327   -0.00607014   -0.00329334
     atom   25 type  3   force =    -0.01191582    0.00788435   -0.00366514
     The non-local contrib.  to forces
     atom    1 type  2   force =     0.03275181    0.02326959    0.02175141
     atom    2 type  1   force =     0.07399190    0.04370910    0.11752355
     atom    3 type  1   force =     0.06848169   -0.00459598    0.09151647
     atom    4 type  1   force =    -0.11908057   -0.06770749   -0.10985579
     atom    5 type  1   force =    -0.06779656    0.02159984   -0.08387481
     atom    6 type  4   force =     0.07251669   -0.00056606    0.00349591
     atom    7 type  4   force =    -0.05787041   -0.00813499    0.02494019
     atom    8 type  4   force =    -0.08126129    0.01147643   -0.00708041
     atom    9 type  4   force =     0.08401014   -0.00118936   -0.01324559
     atom   10 type  3   force =     0.32422950   -0.02479298   -1.44324863
     atom   11 type  3   force =    -0.16060428   -0.02414156   -1.38625931
     atom   12 type  3   force =    -0.38208188    0.01607031    1.44890894
     atom   13 type  3   force =     0.26472532    0.00062453    1.43570967
     atom   14 type  3   force =     1.16857011   -0.03505867   -0.67783950
     atom   15 type  3   force =    -1.13819699    0.02102383   -0.76777293
     atom   16 type  3   force =    -1.16199806   -0.04413633    0.44355619
     atom   17 type  3   force =     1.12726829   -0.00962122    0.67095775
     atom   18 type  3   force =    -0.50580101   -1.15871985    0.75923001
     atom   19 type  3   force =     0.51057484    1.20357271    0.74065959
     atom   20 type  3   force =     0.48982699   -1.13239110   -0.70088854
     atom   21 type  3   force =    -0.51250748    1.13111945   -0.78200148
     atom   22 type  3   force =     0.55269446    1.17574023   -0.73721464
     atom   23 type  3   force =    -0.64103995   -1.09324640   -0.62731361
     atom   24 type  3   force =    -0.49224648    1.13893894    0.76880896
     atom   25 type  3   force =     0.54749233   -1.16325961    0.83570013
     The ionic contribution  to forces
     atom    1 type  2   force =    -1.25487574    0.23965344    0.44159790
     atom    2 type  1   force =    -1.84509652   -0.75885147   -0.72867508
     atom    3 type  1   force =    -7.88304572    1.43951516   -0.91043296
     atom    4 type  1   force =     3.64792893    1.38453619    0.62638225
     atom    5 type  1   force =     7.63527497   -1.88723517    1.24292814
     atom    6 type  4   force =    -2.41586875   -0.07928985    0.71757978
     atom    7 type  4   force =    -0.34461286    1.25830423    1.14562881
     atom    8 type  4   force =     3.35416575    0.05671058   -0.82976699
     atom    9 type  4   force =    -0.90640223   -1.41208535   -1.27298713
     atom   10 type  3   force =   -10.61890084    0.07754540    2.13929488
     atom   11 type  3   force =     4.83396046    2.25007159    0.64933269
     atom   12 type  3   force =    11.74023824   -0.12276227   -2.24748549
     atom   13 type  3   force =    -7.54887971   -1.98485106   -1.55021045
     atom   14 type  3   force =     0.30387282   -1.76272665    5.64763903
     atom   15 type  3   force =    -2.40501125   -0.14937826    7.51793776
     atom   16 type  3   force =    -1.21833376    2.58074867   -3.36866597
     atom   17 type  3   force =     3.48922609    0.14126246   -6.84470395
     atom   18 type  3   force =    -4.29598393    3.15171281   -2.86879059
     atom   19 type  3   force =    -0.89615599   -4.10385185   -1.24725901
     atom   20 type  3   force =     4.44556478    3.79369543    2.33320651
     atom   21 type  3   force =    -1.55032357   -2.48562995    2.61019842
     atom   22 type  3   force =     4.91406064   -3.86797179    2.77539011
     atom   23 type  3   force =     1.79171457    1.78042450   -0.08267027
     atom   24 type  3   force =    -3.78879834   -2.98529664   -2.89090096
     atom   25 type  3   force =     0.81628195    3.44574985   -3.00456743
     The local contribution  to forces
     atom    1 type  2   force =     1.21999366   -0.27814852   -0.45349371
     atom    2 type  1   force =     1.75847432    0.71539233    0.61493888
     atom    3 type  1   force =     7.84182624   -1.43220543    0.81382775
     atom    4 type  1   force =    -3.52288589   -1.31674593   -0.52047670
     atom    5 type  1   force =    -7.59727120    1.86334643   -1.15446288
     atom    6 type  4   force =     2.46449462    0.07973728   -0.69727843
     atom    7 type  4   force =     0.29772303   -1.24921805   -1.14671100
     atom    8 type  4   force =    -3.39403203   -0.06339929    0.80593368
     atom    9 type  4   force =     0.93407152    1.41042091    1.25724912
     atom   10 type  3   force =    10.28165149   -0.05139647   -0.71697875
     atom   11 type  3   force =    -4.66619500   -2.22401794    0.71950181
     atom   12 type  3   force =   -11.34385944    0.10698386    0.82126086
     atom   13 type  3   force =     7.27297258    1.98473023    0.13052489
     atom   14 type  3   force =    -1.58352974    1.80190157   -4.94365592
     atom   15 type  3   force =     3.64951617    0.12698697   -6.71766571
     atom   16 type  3   force =     2.49104728   -2.53650873    2.90287407
     atom   17 type  3   force =    -4.71899745   -0.13049142    6.14509969
     atom   18 type  3   force =     4.81032771   -1.99577581    2.11220329
     atom   19 type  3   force =     0.37807098    2.90386908    0.50963584
     atom   20 type  3   force =    -4.94273360   -2.66193179   -1.63692452
     atom   21 type  3   force =     2.06954908    1.35814098   -1.83194911
     atom   22 type  3   force =    -5.47722556    2.69329650   -2.04190311
     atom   23 type  3   force =    -1.13819253   -0.69031239    0.70407714
     atom   24 type  3   force =     4.28941531    1.84997883    2.12566521
     atom   25 type  3   force =    -1.37118550   -2.28444209    2.17269724
     The core correction contribution to forces
     atom    1 type  2   force =     0.00000000    0.00000000    0.00000000
     atom    2 type  1   force =    -0.00072400   -0.00043330   -0.00013322
     atom    3 type  1   force =    -0.00034235    0.00013136    0.00100431
     atom    4 type  1   force =     0.00179736    0.00069434   -0.00014262
     atom    5 type  1   force =     0.00060644   -0.00025023   -0.00085505
     atom    6 type  4   force =    -0.00727798    0.00002134   -0.00133905
     atom    7 type  4   force =     0.00673298    0.00027398   -0.00311819
     atom    8 type  4   force =     0.00755631   -0.00077132    0.00179646
     atom    9 type  4   force =    -0.00805466    0.00080144    0.00266274
     atom   10 type  3   force =    -0.00329291    0.00021351    0.01257282
     atom   11 type  3   force =     0.00197064    0.00017509    0.01196643
     atom   12 type  3   force =     0.00379312   -0.00015848   -0.01261140
     atom   13 type  3   force =    -0.00279658   -0.00000650   -0.01244674
     atom   14 type  3   force =    -0.00811445    0.00030171    0.00588866
     atom   15 type  3   force =     0.00796008   -0.00016935    0.00652620
     atom   16 type  3   force =     0.00801687    0.00033842   -0.00389937
     atom   17 type  3   force =    -0.00791887    0.00006752   -0.00574104
     atom   18 type  3   force =     0.00416650    0.00988372   -0.00674096
     atom   19 type  3   force =    -0.00415767   -0.01037035   -0.00662186
     atom   20 type  3   force =    -0.00403387    0.00962056    0.00622248
     atom   21 type  3   force =     0.00420068   -0.00963110    0.00702663
     atom   22 type  3   force =    -0.00458427   -0.01000736    0.00654325
     atom   23 type  3   force =     0.00529866    0.00935797    0.00565019
     atom   24 type  3   force =     0.00403265   -0.00969303   -0.00686597
     atom   25 type  3   force =    -0.00450290    0.00983439   -0.00749569
     The Hubbard contrib.    to forces
     atom    1 type  2   force =     0.00000000    0.00000000    0.00000000
     atom    2 type  1   force =     0.00000000    0.00000000    0.00000000
     atom    3 type  1   force =     0.00000000    0.00000000    0.00000000
     atom    4 type  1   force =     0.00000000    0.00000000    0.00000000
     atom    5 type  1   force =     0.00000000    0.00000000    0.00000000
     atom    6 type  4   force =     0.00000000    0.00000000    0.00000000
     atom    7 type  4   force =     0.00000000    0.00000000    0.00000000
     atom    8 type  4   force =     0.00000000    0.00000000    0.00000000
     atom    9 type  4   force =     0.00000000    0.00000000    0.00000000
     atom   10 type  3   force =     0.00000000    0.00000000    0.00000000
     atom   11 type  3   force =     0.00000000    0.00000000    0.00000000
     atom   12 type  3   force =     0.00000000    0.00000000    0.00000000
     atom   13 type  3   force =     0.00000000    0.00000000    0.00000000
     atom   14 type  3   force =     0.00000000    0.00000000    0.00000000
     atom   15 type  3   force =     0.00000000    0.00000000    0.00000000
     atom   16 type  3   force =     0.00000000    0.00000000    0.00000000
     atom   17 type  3   force =     0.00000000    0.00000000    0.00000000
     atom   18 type  3   force =     0.00000000    0.00000000    0.00000000
     atom   19 type  3   force =     0.00000000    0.00000000    0.00000000
     atom   20 type  3   force =     0.00000000    0.00000000    0.00000000
     atom   21 type  3   force =     0.00000000    0.00000000    0.00000000
     atom   22 type  3   force =     0.00000000    0.00000000    0.00000000
     atom   23 type  3   force =     0.00000000    0.00000000    0.00000000
     atom   24 type  3   force =     0.00000000    0.00000000    0.00000000
     atom   25 type  3   force =     0.00000000    0.00000000    0.00000000
     The SCF correction term to forces
     atom    1 type  2   force =    -0.00000250   -0.00000128    0.00000032
     atom    2 type  1   force =    -0.00000267   -0.00000002   -0.00000023
     atom    3 type  1   force =    -0.00000048    0.00000008    0.00000002
     atom    4 type  1   force =     0.00000116    0.00000009   -0.00000022
     atom    5 type  1   force =     0.00000271    0.00000011   -0.00000000
     atom    6 type  4   force =     0.00000091   -0.00000005    0.00000001
     atom    7 type  4   force =    -0.00000169    0.00000001    0.00000002
     atom    8 type  4   force =     0.00000180    0.00000004   -0.00000072
     atom    9 type  4   force =    -0.00000072    0.00000010    0.00000004
     atom   10 type  3   force =     0.00000159   -0.00000006    0.00000026
     atom   11 type  3   force =    -0.00000165    0.00000002   -0.00000018
     atom   12 type  3   force =     0.00000367    0.00000001    0.00000223
     atom   13 type  3   force =     0.00000087   -0.00000008   -0.00000138
     atom   14 type  3   force =    -0.00000268   -0.00000002   -0.00000041
     atom   15 type  3   force =     0.00000077   -0.00000002   -0.00000040
     atom   16 type  3   force =    -0.00000352   -0.00000012   -0.00000089
     atom   17 type  3   force =    -0.00000015   -0.00000001    0.00000088
     atom   18 type  3   force =     0.00000044   -0.00000172   -0.00000050
     atom   19 type  3   force =    -0.00000139   -0.00000159    0.00000063
     atom   20 type  3   force =     0.00000219    0.00000319   -0.00000222
     atom   21 type  3   force =     0.00000027    0.00000305    0.00000199
     atom   22 type  3   force =     0.00000194   -0.00000302   -0.00000198
     atom   23 type  3   force =     0.00000037   -0.00000295    0.00000184
     atom   24 type  3   force =     0.00000043    0.00000168   -0.00000052
     atom   25 type  3   force =    -0.00000140    0.00000174    0.00000066

     Total force =     0.334532     Total SCF correction =     0.000013


     Computing stress (Cartesian axis) and pressure


     negative rho (up, down):  0.000E+00 9.174E-04
          total   stress  (Ry/bohr**3)                   (kbar)     P=       75.83
   0.00116089  -0.00002674  -0.00004008          170.77       -3.93       -5.90
  -0.00002674   0.00012724   0.00002463           -3.93       18.72        3.62
  -0.00004008   0.00002463   0.00025823           -5.90        3.62       37.99

     kinetic stress (kbar)  28104.45     14.91     -3.42
                               14.91  28196.75      3.21
                               -3.42      3.21  27987.44

     local   stress (kbar)  -6311.93   2591.40   1054.93
                             2591.40 -12928.58   -918.98
                             1054.93   -918.98  -7131.97

     nonloc. stress (kbar)  -7183.67      0.92      4.23
                                0.92  -7099.04     -1.31
                                4.23     -1.31  -7128.02

     hartree stress (kbar)  13838.36  -1048.62   -407.73
                            -1048.62  17999.02    370.73
                             -407.73    370.73  14951.70

     exc-cor stress (kbar)  -2962.05     -1.40     -0.73
                               -1.40  -2971.07      0.40
                               -0.73      0.40  -2968.02

     corecor stress (kbar)  -3283.12      0.52      0.37
                                0.52  -3280.22      0.01
                                0.37      0.01  -3281.04

     ewald   stress (kbar) -22031.26  -1561.66   -653.55
                            -1561.66 -19898.15    549.57
                             -653.55    549.57 -22392.11

     hubbard stress (kbar)      0.00      0.00      0.00
                                0.00      0.00      0.00
                                0.00      0.00      0.00

     DFT-D   stress (kbar)      0.00      0.00      0.00
                                0.00      0.00      0.00
                                0.00      0.00      0.00

     XDM     stress (kbar)      0.00      0.00      0.00
                                0.00      0.00      0.00
                                0.00      0.00      0.00

     dft-nl  stress (kbar)      0.00      0.00      0.00
                                0.00      0.00      0.00
                                0.00      0.00      0.00

     TS-vdW  stress (kbar)      0.00      0.00      0.00
                                0.00      0.00      0.00
                                0.00      0.00      0.00



     init_run     :    205.18s CPU    209.87s WALL (       1 calls)
     electrons    :  16365.29s CPU  16616.49s WALL (       1 calls)
     forces       :    136.75s CPU    139.44s WALL (       1 calls)
     stress       :    815.66s CPU    823.04s WALL (       1 calls)

     Called by init_run:
     wfcinit      :    193.54s CPU    196.81s WALL (       1 calls)
     wfcinit:atom :      3.85s CPU      3.91s WALL (     316 calls)
     wfcinit:wfcr :    179.21s CPU    182.27s WALL (     316 calls)
     potinit      :      4.31s CPU      4.76s WALL (       1 calls)
     hinit0       :      4.13s CPU      4.33s WALL (       1 calls)

     Called by electrons:
     c_bands      :  14503.30s CPU  14686.08s WALL (      30 calls)
     sum_band     :   1737.27s CPU   1782.50s WALL (      30 calls)
     v_of_rho     :     30.18s CPU     31.37s WALL (      31 calls)
     v_h          :      1.56s CPU      1.65s WALL (      31 calls)
     v_xc         :     30.51s CPU     31.67s WALL (      33 calls)
     newd         :     64.78s CPU     83.49s WALL (      31 calls)
     PAW_pot      :     23.69s CPU     23.76s WALL (      31 calls)
     mix_rho      :      6.68s CPU      7.01s WALL (      30 calls)

     Called by c_bands:
     init_us_2    :    286.78s CPU    291.10s WALL (   19908 calls)
     cegterg      :  14069.44s CPU  14203.92s WALL (    9480 calls)

     Called by sum_band:
     sum_band:wei :      0.41s CPU      0.42s WALL (      30 calls)
     sum_band:loo :   1590.93s CPU   1613.25s WALL (      30 calls)
     sum_band:buf :     75.36s CPU     76.43s WALL (    9480 calls)
     sum_band:ini :    139.81s CPU    141.61s WALL (    9480 calls)
     sum_band:cal :    778.17s CPU    789.39s WALL (    9480 calls)
     sum_band:bec :      5.55s CPU      5.71s WALL (    9480 calls)
     addusdens    :    142.64s CPU    165.38s WALL (      30 calls)
     addusd:skk   :      1.09s CPU      1.12s WALL (      90 calls)
     addusd:dgemm :     59.11s CPU     78.56s WALL (     180 calls)
     addusd:qvan2 :     80.09s CPU     80.67s WALL (     180 calls)

     Called by *egterg:
     cdiaghg      :    754.24s CPU    762.89s WALL (   38753 calls)
     cegterg:over :   1345.35s CPU   1364.18s WALL (   29273 calls)
     cegterg:upda :    963.61s CPU    969.09s WALL (   29273 calls)
     cegterg:last :   1719.07s CPU   1728.11s WALL (   15546 calls)
     h_psi        :   6719.26s CPU   6794.08s WALL (   39069 calls)
     s_psi        :   1873.97s CPU   1884.05s WALL (   39069 calls)
     g_psi        :     27.24s CPU     27.61s WALL (   29273 calls)

     Called by h_psi:
     h_psi:calbec :   2006.60s CPU   2033.23s WALL (   39069 calls)
     vloc_psi     :   2571.92s CPU   2605.78s WALL (   39069 calls)
     add_vuspsi   :   1994.30s CPU   2005.92s WALL (   39069 calls)

     General routines
     calbec       :   2923.67s CPU   2963.53s WALL (   50129 calls)
     fft          :     25.42s CPU     27.11s WALL (     813 calls)
     ffts         :      0.30s CPU      0.38s WALL (     122 calls)
     fftw         :   2844.85s CPU   2881.86s WALL ( 5876266 calls)
     interpolate  :      2.37s CPU      2.57s WALL (      62 calls)

     Parallel routines
     fft_scatt_xy :    314.12s CPU    317.69s WALL ( 5877201 calls)
     fft_scatt_yz :    741.72s CPU    754.78s WALL ( 5877201 calls)

     PAW routines
     PAW_pot      :     23.69s CPU     23.76s WALL (      31 calls)

     PWSCF        :      4h52m CPU      4h56m WALL


   This run was terminated on:   3: 5:13  16Dec2022            

=------------------------------------------------------------------------------=
   JOB DONE.
=------------------------------------------------------------------------------=
Note: The following floating-point exceptions are signalling: IEEE_UNDERFLOW_FLAG IEEE_DENORMAL
Note: The following floating-point exceptions are signalling: IEEE_DENORMAL
Note: The following floating-point exceptions are signalling: IEEE_DENORMAL
Note: The following floating-point exceptions are signalling: IEEE_DENORMAL
Note: The following floating-point exceptions are signalling: IEEE_DENORMAL
Note: The following floating-point exceptions are signalling: IEEE_INVALID_FLAG IEEE_DENORMAL
Note: The following floating-point exceptions are signalling: IEEE_DENORMAL
Note: The following floating-point exceptions are signalling: IEEE_DENORMAL
Note: The following floating-point exceptions are signalling: IEEE_DENORMAL
Note: The following floating-point exceptions are signalling: IEEE_DENORMAL
Note: The following floating-point exceptions are signalling: IEEE_DENORMAL
Note: The following floating-point exceptions are signalling: IEEE_DENORMAL
Note: The following floating-point exceptions are signalling: IEEE_DENORMAL
