
     Program PWSCF v.6.7MaX starts on 16Dec2022 at  2: 5: 2 

     This program is part of the open-source Quantum ESPRESSO suite
     for quantum simulation of materials; please cite
         "P. Giannozzi et al., J. Phys.:Condens. Matter 21 395502 (2009);
         "P. Giannozzi et al., J. Phys.:Condens. Matter 29 465901 (2017);
          URL http://www.quantum-espresso.org", 
     in publications or presentations arising from this work. More details at
     http://www.quantum-espresso.org/quote

     Parallel version (MPI), running on    16 processors

     MPI processes distributed on     1 nodes
     R & G space division:  proc/nbgrp/npool/nimage =      16
     Reading input from scale_2dab-00.in

     Current dimensions of program PWSCF are:
     Max number of different atomic species (ntypx) = 10
     Max number of k-points (npk) =  40000
     Max angular momentum in pseudopotentials (lmaxx) =  3
     Message from routine read_pp_mesh:
     mesh size missing, using the one in header
     file Fe.pbe-spn-kjpaw_psl.0.2.1.UPF: wavefunction(s)  3D renormalized
     file O.pbe-n-kjpaw_psl.0.1.UPF: wavefunction(s)  2P renormalized

     Subspace diagonalization in iterative solution of the eigenvalue problem:
     a serial algorithm will be used


     Parallelization info
     --------------------
     sticks:   dense  smooth     PW     G-vecs:    dense   smooth      PW
     Min        1120     415    112                73029    16467    2322
     Max        1122     416    114                73030    16470    2323
     Sum       17927    6645   1805              1168479   263495   37159



     bravais-lattice index     =            0
     lattice parameter (alat)  =      18.6818  a.u.
     unit-cell volume          =    1949.7229 (a.u.)^3
     number of atoms/cell      =           25
     number of atomic types    =            4
     number of electrons       =       189.00
     number of Kohn-Sham states=          114
     kinetic-energy cutoff     =     100.0000  Ry
     charge density cutoff     =    1080.0000  Ry
     scf convergence threshold =      2.0E-10
     mixing beta               =       0.4000
     number of iterations used =            8  plain     mixing
     Exchange-correlation= PBE
                           (   1   4   3   4   0   0   0)

     celldm(1)=  18.681804  celldm(2)=   0.000000  celldm(3)=   0.000000
     celldm(4)=   0.000000  celldm(5)=   0.000000  celldm(6)=   0.000000

     crystal axes: (cart. coord. in units of alat)
               a(1) = (   1.000000   0.000000   0.000000 )  
               a(2) = (   0.000000   0.597590   0.000000 )  
               a(3) = (   0.000000   0.000000   0.500395 )  

     reciprocal axes: (cart. coord. in units 2 pi/alat)
               b(1) = (  1.000000  0.000000  0.000000 )  
               b(2) = (  0.000000  1.673388  0.000000 )  
               b(3) = (  0.000000  0.000000  1.998420 )  


     PseudoPot. # 1 for Fe read from file:
     /opt/QEpot/SSSP_precision_pseudos/Fe.pbe-spn-kjpaw_psl.0.2.1.UPF
     MD5 check sum: e86618425769142926afa95317d90200
     Pseudo is Projector augmented-wave + core cor, Zval = 16.0
     Generated using "atomic" code by A. Dal Corso  v.5.0.99 svn rev. 10869
     Shape of augmentation charge: PSQ
     Using radial grid of 1191 points,  6 beta functions with: 
                l(1) =   0
                l(2) =   0
                l(3) =   1
                l(4) =   1
                l(5) =   2
                l(6) =   2
     Q(r) pseudized with 0 coefficients 


     PseudoPot. # 2 for Na read from file:
     /opt/QEpot/SSSP_precision_pseudos/Na_ONCV_PBE-1.0.oncvpsp.upf
     MD5 check sum: 24a298df0a6742ae313db96548fdb2a4
     Pseudo is Norm-conserving, Zval =  9.0
     Generated using ONCVPSP code by D. R. Hamann
     Using radial grid of 1992 points,  4 beta functions with: 
                l(1) =   0
                l(2) =   0
                l(3) =   1
                l(4) =   1

     PseudoPot. # 3 for O  read from file:
     /opt/QEpot/SSSP_precision_pseudos/O.pbe-n-kjpaw_psl.0.1.UPF
     MD5 check sum: 0234752ac141de4415c5fc33072bef88
     Pseudo is Projector augmented-wave + core cor, Zval =  6.0
     Generated using "atomic" code by A. Dal Corso  v.5.0.99 svn rev. 10869
     Shape of augmentation charge: BESSEL
     Using radial grid of 1095 points,  4 beta functions with: 
                l(1) =   0
                l(2) =   0
                l(3) =   1
                l(4) =   1
     Q(r) pseudized with 0 coefficients 


     PseudoPot. # 4 for P  read from file:
     /opt/QEpot/SSSP_precision_pseudos/P.pbe-n-rrkjus_psl.1.0.0.UPF
     MD5 check sum: 8b930f418f0a4573dca56cd030ffe088
     Pseudo is Ultrasoft + core correction, Zval =  5.0
     Generated using "atomic" code by A. Dal Corso  v.5.1
     Using radial grid of 1147 points,  6 beta functions with: 
                l(1) =   0
                l(2) =   0
                l(3) =   1
                l(4) =   1
                l(5) =   2
                l(6) =   2
     Q(r) pseudized with 0 coefficients 


     atomic species   valence    mass     pseudopotential
        Fe            16.00    55.84500     Fe( 1.00)
        Na             9.00    22.98977     Na( 1.00)
        O              6.00    15.99940     O ( 1.00)
        P              5.00    30.97376     P ( 1.00)

     Starting magnetic structure 
     atomic species   magnetization
        Fe           0.312
        Na           0.000
        O            0.000
        P            0.000

     No symmetry found


                                    s                        frac. trans.

      isym =  1     identity                                     

 cryst.   s( 1) = (     1          0          0      )
                  (     0          1          0      )
                  (     0          0          1      )

 cart.    s( 1) = (  1.0000000  0.0000000  0.0000000 )
                  (  0.0000000  1.0000000  0.0000000 )
                  (  0.0000000  0.0000000  1.0000000 )


   Cartesian axes

     site n.     atom                  positions (alat units)
         1           Na  tau(   1) = (   0.5267800   0.0486677   0.2427558  )
         2           Fe  tau(   2) = (   0.2775050   0.4491175   0.4971022  )
         3           Fe  tau(   3) = (   0.2107690   0.1521034   0.2453388  )
         4           Fe  tau(   4) = (   0.7260420   0.1558891   0.0027982  )
         5           Fe  tau(   5) = (   0.7842060   0.4465013   0.2553532  )
         6           P   tau(   6) = (   0.1068460   0.4500707   0.2223701  )
         7           P   tau(   7) = (   0.3892680   0.1546557   0.4726018  )
         8           P   tau(   8) = (   0.8912160   0.1497698   0.2785946  )
         9           P   tau(   9) = (   0.6066990   0.4490321   0.0280602  )
        10           O   tau(  10) = (   0.1320850   0.4514188   0.3760265  )
        11           O   tau(  11) = (   0.3656990   0.1503321   0.1262167  )
        12           O   tau(  12) = (   0.8700850   0.1505992   0.1244028  )
        13           O   tau(  13) = (   0.6284590   0.4532630   0.3738938  )
        14           O   tau(  14) = (   0.4610830   0.4537817   0.0619044  )
        15           O   tau(  15) = (   0.0360890   0.1490431   0.3119739  )
        16           O   tau(  16) = (   0.5370310   0.1529191   0.4456650  )
        17           O   tau(  17) = (   0.9604850   0.4500229   0.1943380  )
        18           O   tau(  18) = (   0.1771920   0.5657067   0.1496667  )
        19           O   tau(  19) = (   0.3254690   0.0375896   0.3956205  )
        20           O   tau(  20) = (   0.8196290   0.2668030   0.3487655  )
        21           O   tau(  21) = (   0.6770690   0.3323102   0.0982926  )
        22           O   tau(  22) = (   0.8166330   0.0353534   0.3484452  )
        23           O   tau(  23) = (   0.6775470   0.5651378   0.1011619  )
        24           O   tau(  24) = (   0.1757850   0.3327434   0.1511704  )
        25           O   tau(  25) = (   0.3204000   0.2709461   0.4024599  )

   Crystallographic axes

     site n.     atom                  positions (cryst. coord.)
         1           Na  tau(   1) = (  0.5267800  0.0814400  0.4851280  )
         2           Fe  tau(   2) = (  0.2775050  0.7515480  0.9934190  )
         3           Fe  tau(   3) = (  0.2107690  0.2545280  0.4902900  )
         4           Fe  tau(   4) = (  0.7260420  0.2608630  0.0055920  )
         5           Fe  tau(   5) = (  0.7842060  0.7471700  0.5103030  )
         6           P   tau(   6) = (  0.1068460  0.7531430  0.4443890  )
         7           P   tau(   7) = (  0.3892680  0.2587990  0.9444570  )
         8           P   tau(   8) = (  0.8912160  0.2506230  0.5567490  )
         9           P   tau(   9) = (  0.6066990  0.7514050  0.0560760  )
        10           O   tau(  10) = (  0.1320850  0.7553990  0.7514590  )
        11           O   tau(  11) = (  0.3656990  0.2515640  0.2522340  )
        12           O   tau(  12) = (  0.8700850  0.2520110  0.2486090  )
        13           O   tau(  13) = (  0.6284590  0.7584850  0.7471970  )
        14           O   tau(  14) = (  0.4610830  0.7593530  0.1237110  )
        15           O   tau(  15) = (  0.0360890  0.2494070  0.6234550  )
        16           O   tau(  16) = (  0.5370310  0.2558930  0.8906260  )
        17           O   tau(  17) = (  0.9604850  0.7530630  0.3883690  )
        18           O   tau(  18) = (  0.1771920  0.9466470  0.2990970  )
        19           O   tau(  19) = (  0.3254690  0.0629020  0.7906160  )
        20           O   tau(  20) = (  0.8196290  0.4464650  0.6969800  )
        21           O   tau(  21) = (  0.6770690  0.5560840  0.1964300  )
        22           O   tau(  22) = (  0.8166330  0.0591600  0.6963400  )
        23           O   tau(  23) = (  0.6775470  0.9456950  0.2021640  )
        24           O   tau(  24) = (  0.1757850  0.5568090  0.3021020  )
        25           O   tau(  25) = (  0.3204000  0.4533980  0.8042840  )

     number of k points=   158  Marzari-Vanderbilt smearing, width (Ry)=  0.0073
                       cart. coord. in units 2pi/alat
        k(    1) = (   0.0000000   0.0000000   0.0000000), wk =   0.0031746
        k(    2) = (   0.0000000   0.0000000   0.2220467), wk =   0.0063492
        k(    3) = (   0.0000000   0.0000000   0.4440934), wk =   0.0063492
        k(    4) = (   0.0000000   0.0000000   0.6661401), wk =   0.0063492
        k(    5) = (   0.0000000   0.0000000   0.8881868), wk =   0.0063492
        k(    6) = (   0.0000000   0.2390555   0.0000000), wk =   0.0063492
        k(    7) = (   0.0000000   0.2390555   0.2220467), wk =   0.0063492
        k(    8) = (   0.0000000   0.2390555   0.4440934), wk =   0.0063492
        k(    9) = (   0.0000000   0.2390555   0.6661401), wk =   0.0063492
        k(   10) = (   0.0000000   0.2390555   0.8881868), wk =   0.0063492
        k(   11) = (   0.0000000   0.4781110   0.0000000), wk =   0.0063492
        k(   12) = (   0.0000000   0.4781110   0.2220467), wk =   0.0063492
        k(   13) = (   0.0000000   0.4781110   0.4440934), wk =   0.0063492
        k(   14) = (   0.0000000   0.4781110   0.6661401), wk =   0.0063492
        k(   15) = (   0.0000000   0.4781110   0.8881868), wk =   0.0063492
        k(   16) = (   0.0000000   0.7171664   0.0000000), wk =   0.0063492
        k(   17) = (   0.0000000   0.7171664   0.2220467), wk =   0.0063492
        k(   18) = (   0.0000000   0.7171664   0.4440934), wk =   0.0063492
        k(   19) = (   0.0000000   0.7171664   0.6661401), wk =   0.0063492
        k(   20) = (   0.0000000   0.7171664   0.8881868), wk =   0.0063492
        k(   21) = (   0.2000000   0.0000000   0.0000000), wk =   0.0063492
        k(   22) = (   0.2000000   0.0000000   0.2220467), wk =   0.0063492
        k(   23) = (   0.2000000   0.0000000   0.4440934), wk =   0.0063492
        k(   24) = (   0.2000000   0.0000000   0.6661401), wk =   0.0063492
        k(   25) = (   0.2000000   0.0000000   0.8881868), wk =   0.0063492
        k(   26) = (   0.2000000   0.2390555   0.0000000), wk =   0.0063492
        k(   27) = (   0.2000000   0.2390555   0.2220467), wk =   0.0063492
        k(   28) = (   0.2000000   0.2390555   0.4440934), wk =   0.0063492
        k(   29) = (   0.2000000   0.2390555   0.6661401), wk =   0.0063492
        k(   30) = (   0.2000000   0.2390555   0.8881868), wk =   0.0063492
        k(   31) = (   0.2000000   0.4781110   0.0000000), wk =   0.0063492
        k(   32) = (   0.2000000   0.4781110   0.2220467), wk =   0.0063492
        k(   33) = (   0.2000000   0.4781110   0.4440934), wk =   0.0063492
        k(   34) = (   0.2000000   0.4781110   0.6661401), wk =   0.0063492
        k(   35) = (   0.2000000   0.4781110   0.8881868), wk =   0.0063492
        k(   36) = (   0.2000000   0.7171664   0.0000000), wk =   0.0063492
        k(   37) = (   0.2000000   0.7171664   0.2220467), wk =   0.0063492
        k(   38) = (   0.2000000   0.7171664   0.4440934), wk =   0.0063492
        k(   39) = (   0.2000000   0.7171664   0.6661401), wk =   0.0063492
        k(   40) = (   0.2000000   0.7171664   0.8881868), wk =   0.0063492
        k(   41) = (   0.4000000   0.0000000   0.0000000), wk =   0.0063492
        k(   42) = (   0.4000000   0.0000000   0.2220467), wk =   0.0063492
        k(   43) = (   0.4000000   0.0000000   0.4440934), wk =   0.0063492
        k(   44) = (   0.4000000   0.0000000   0.6661401), wk =   0.0063492
        k(   45) = (   0.4000000   0.0000000   0.8881868), wk =   0.0063492
        k(   46) = (   0.4000000   0.2390555   0.0000000), wk =   0.0063492
        k(   47) = (   0.4000000   0.2390555   0.2220467), wk =   0.0063492
        k(   48) = (   0.4000000   0.2390555   0.4440934), wk =   0.0063492
        k(   49) = (   0.4000000   0.2390555   0.6661401), wk =   0.0063492
        k(   50) = (   0.4000000   0.2390555   0.8881868), wk =   0.0063492
        k(   51) = (   0.4000000   0.4781110   0.0000000), wk =   0.0063492
        k(   52) = (   0.4000000   0.4781110   0.2220467), wk =   0.0063492
        k(   53) = (   0.4000000   0.4781110   0.4440934), wk =   0.0063492
        k(   54) = (   0.4000000   0.4781110   0.6661401), wk =   0.0063492
        k(   55) = (   0.4000000   0.4781110   0.8881868), wk =   0.0063492
        k(   56) = (   0.4000000   0.7171664   0.0000000), wk =   0.0063492
        k(   57) = (   0.4000000   0.7171664   0.2220467), wk =   0.0063492
        k(   58) = (   0.4000000   0.7171664   0.4440934), wk =   0.0063492
        k(   59) = (   0.4000000   0.7171664   0.6661401), wk =   0.0063492
        k(   60) = (   0.4000000   0.7171664   0.8881868), wk =   0.0063492
        k(   61) = (   0.0000000  -0.2390555   0.2220467), wk =   0.0063492
        k(   62) = (   0.0000000  -0.2390555   0.4440934), wk =   0.0063492
        k(   63) = (   0.0000000  -0.2390555   0.6661401), wk =   0.0063492
        k(   64) = (   0.0000000  -0.2390555   0.8881868), wk =   0.0063492
        k(   65) = (   0.0000000  -0.4781110   0.2220467), wk =   0.0063492
        k(   66) = (   0.0000000  -0.4781110   0.4440934), wk =   0.0063492
        k(   67) = (   0.0000000  -0.4781110   0.6661401), wk =   0.0063492
        k(   68) = (   0.0000000  -0.4781110   0.8881868), wk =   0.0063492
        k(   69) = (   0.0000000  -0.7171664   0.2220467), wk =   0.0063492
        k(   70) = (   0.0000000  -0.7171664   0.4440934), wk =   0.0063492
        k(   71) = (   0.0000000  -0.7171664   0.6661401), wk =   0.0063492
        k(   72) = (   0.0000000  -0.7171664   0.8881868), wk =   0.0063492
        k(   73) = (  -0.2000000   0.0000000   0.2220467), wk =   0.0063492
        k(   74) = (  -0.2000000   0.0000000   0.4440934), wk =   0.0063492
        k(   75) = (  -0.2000000   0.0000000   0.6661401), wk =   0.0063492
        k(   76) = (  -0.2000000   0.0000000   0.8881868), wk =   0.0063492
        k(   77) = (  -0.2000000   0.2390555   0.0000000), wk =   0.0063492
        k(   78) = (  -0.2000000  -0.2390555   0.2220467), wk =   0.0063492
        k(   79) = (  -0.2000000   0.2390555  -0.2220467), wk =   0.0063492
        k(   80) = (   0.2000000  -0.2390555  -0.2220467), wk =   0.0063492
        k(   81) = (  -0.2000000  -0.2390555   0.4440934), wk =   0.0063492
        k(   82) = (  -0.2000000   0.2390555  -0.4440934), wk =   0.0063492
        k(   83) = (   0.2000000  -0.2390555  -0.4440934), wk =   0.0063492
        k(   84) = (  -0.2000000  -0.2390555   0.6661401), wk =   0.0063492
        k(   85) = (  -0.2000000   0.2390555  -0.6661401), wk =   0.0063492
        k(   86) = (   0.2000000  -0.2390555  -0.6661401), wk =   0.0063492
        k(   87) = (  -0.2000000  -0.2390555   0.8881868), wk =   0.0063492
        k(   88) = (  -0.2000000   0.2390555  -0.8881868), wk =   0.0063492
        k(   89) = (   0.2000000  -0.2390555  -0.8881868), wk =   0.0063492
        k(   90) = (  -0.2000000   0.4781110   0.0000000), wk =   0.0063492
        k(   91) = (  -0.2000000  -0.4781110   0.2220467), wk =   0.0063492
        k(   92) = (  -0.2000000   0.4781110  -0.2220467), wk =   0.0063492
        k(   93) = (   0.2000000  -0.4781110  -0.2220467), wk =   0.0063492
        k(   94) = (  -0.2000000  -0.4781110   0.4440934), wk =   0.0063492
        k(   95) = (  -0.2000000   0.4781110  -0.4440934), wk =   0.0063492
        k(   96) = (   0.2000000  -0.4781110  -0.4440934), wk =   0.0063492
        k(   97) = (  -0.2000000  -0.4781110   0.6661401), wk =   0.0063492
        k(   98) = (  -0.2000000   0.4781110  -0.6661401), wk =   0.0063492
        k(   99) = (   0.2000000  -0.4781110  -0.6661401), wk =   0.0063492
        k(  100) = (  -0.2000000  -0.4781110   0.8881868), wk =   0.0063492
        k(  101) = (  -0.2000000   0.4781110  -0.8881868), wk =   0.0063492
        k(  102) = (   0.2000000  -0.4781110  -0.8881868), wk =   0.0063492
        k(  103) = (  -0.2000000   0.7171664   0.0000000), wk =   0.0063492
        k(  104) = (  -0.2000000  -0.7171664   0.2220467), wk =   0.0063492
        k(  105) = (  -0.2000000   0.7171664  -0.2220467), wk =   0.0063492
        k(  106) = (   0.2000000  -0.7171664  -0.2220467), wk =   0.0063492
        k(  107) = (  -0.2000000  -0.7171664   0.4440934), wk =   0.0063492
        k(  108) = (  -0.2000000   0.7171664  -0.4440934), wk =   0.0063492
        k(  109) = (   0.2000000  -0.7171664  -0.4440934), wk =   0.0063492
        k(  110) = (  -0.2000000  -0.7171664   0.6661401), wk =   0.0063492
        k(  111) = (  -0.2000000   0.7171664  -0.6661401), wk =   0.0063492
        k(  112) = (   0.2000000  -0.7171664  -0.6661401), wk =   0.0063492
        k(  113) = (  -0.2000000  -0.7171664   0.8881868), wk =   0.0063492
        k(  114) = (  -0.2000000   0.7171664  -0.8881868), wk =   0.0063492
        k(  115) = (   0.2000000  -0.7171664  -0.8881868), wk =   0.0063492
        k(  116) = (  -0.4000000   0.0000000   0.2220467), wk =   0.0063492
        k(  117) = (  -0.4000000   0.0000000   0.4440934), wk =   0.0063492
        k(  118) = (  -0.4000000   0.0000000   0.6661401), wk =   0.0063492
        k(  119) = (  -0.4000000   0.0000000   0.8881868), wk =   0.0063492
        k(  120) = (  -0.4000000   0.2390555   0.0000000), wk =   0.0063492
        k(  121) = (  -0.4000000  -0.2390555   0.2220467), wk =   0.0063492
        k(  122) = (  -0.4000000   0.2390555  -0.2220467), wk =   0.0063492
        k(  123) = (   0.4000000  -0.2390555  -0.2220467), wk =   0.0063492
        k(  124) = (  -0.4000000  -0.2390555   0.4440934), wk =   0.0063492
        k(  125) = (  -0.4000000   0.2390555  -0.4440934), wk =   0.0063492
        k(  126) = (   0.4000000  -0.2390555  -0.4440934), wk =   0.0063492
        k(  127) = (  -0.4000000  -0.2390555   0.6661401), wk =   0.0063492
        k(  128) = (  -0.4000000   0.2390555  -0.6661401), wk =   0.0063492
        k(  129) = (   0.4000000  -0.2390555  -0.6661401), wk =   0.0063492
        k(  130) = (  -0.4000000  -0.2390555   0.8881868), wk =   0.0063492
        k(  131) = (  -0.4000000   0.2390555  -0.8881868), wk =   0.0063492
        k(  132) = (   0.4000000  -0.2390555  -0.8881868), wk =   0.0063492
        k(  133) = (  -0.4000000   0.4781110   0.0000000), wk =   0.0063492
        k(  134) = (  -0.4000000  -0.4781110   0.2220467), wk =   0.0063492
        k(  135) = (  -0.4000000   0.4781110  -0.2220467), wk =   0.0063492
        k(  136) = (   0.4000000  -0.4781110  -0.2220467), wk =   0.0063492
        k(  137) = (  -0.4000000  -0.4781110   0.4440934), wk =   0.0063492
        k(  138) = (  -0.4000000   0.4781110  -0.4440934), wk =   0.0063492
        k(  139) = (   0.4000000  -0.4781110  -0.4440934), wk =   0.0063492
        k(  140) = (  -0.4000000  -0.4781110   0.6661401), wk =   0.0063492
        k(  141) = (  -0.4000000   0.4781110  -0.6661401), wk =   0.0063492
        k(  142) = (   0.4000000  -0.4781110  -0.6661401), wk =   0.0063492
        k(  143) = (  -0.4000000  -0.4781110   0.8881868), wk =   0.0063492
        k(  144) = (  -0.4000000   0.4781110  -0.8881868), wk =   0.0063492
        k(  145) = (   0.4000000  -0.4781110  -0.8881868), wk =   0.0063492
        k(  146) = (  -0.4000000   0.7171664   0.0000000), wk =   0.0063492
        k(  147) = (  -0.4000000  -0.7171664   0.2220467), wk =   0.0063492
        k(  148) = (  -0.4000000   0.7171664  -0.2220467), wk =   0.0063492
        k(  149) = (   0.4000000  -0.7171664  -0.2220467), wk =   0.0063492
        k(  150) = (  -0.4000000  -0.7171664   0.4440934), wk =   0.0063492
        k(  151) = (  -0.4000000   0.7171664  -0.4440934), wk =   0.0063492
        k(  152) = (   0.4000000  -0.7171664  -0.4440934), wk =   0.0063492
        k(  153) = (  -0.4000000  -0.7171664   0.6661401), wk =   0.0063492
        k(  154) = (  -0.4000000   0.7171664  -0.6661401), wk =   0.0063492
        k(  155) = (   0.4000000  -0.7171664  -0.6661401), wk =   0.0063492
        k(  156) = (  -0.4000000  -0.7171664   0.8881868), wk =   0.0063492
        k(  157) = (  -0.4000000   0.7171664  -0.8881868), wk =   0.0063492
        k(  158) = (   0.4000000  -0.7171664  -0.8881868), wk =   0.0063492

                       cryst. coord.
        k(    1) = (   0.0000000   0.0000000   0.0000000), wk =   0.0031746
        k(    2) = (   0.0000000   0.0000000   0.1111111), wk =   0.0063492
        k(    3) = (   0.0000000   0.0000000   0.2222222), wk =   0.0063492
        k(    4) = (   0.0000000   0.0000000   0.3333333), wk =   0.0063492
        k(    5) = (   0.0000000   0.0000000   0.4444444), wk =   0.0063492
        k(    6) = (   0.0000000   0.1428571   0.0000000), wk =   0.0063492
        k(    7) = (   0.0000000   0.1428571   0.1111111), wk =   0.0063492
        k(    8) = (   0.0000000   0.1428571   0.2222222), wk =   0.0063492
        k(    9) = (   0.0000000   0.1428571   0.3333333), wk =   0.0063492
        k(   10) = (   0.0000000   0.1428571   0.4444444), wk =   0.0063492
        k(   11) = (   0.0000000   0.2857143   0.0000000), wk =   0.0063492
        k(   12) = (   0.0000000   0.2857143   0.1111111), wk =   0.0063492
        k(   13) = (   0.0000000   0.2857143   0.2222222), wk =   0.0063492
        k(   14) = (   0.0000000   0.2857143   0.3333333), wk =   0.0063492
        k(   15) = (   0.0000000   0.2857143   0.4444444), wk =   0.0063492
        k(   16) = (   0.0000000   0.4285714   0.0000000), wk =   0.0063492
        k(   17) = (   0.0000000   0.4285714   0.1111111), wk =   0.0063492
        k(   18) = (   0.0000000   0.4285714   0.2222222), wk =   0.0063492
        k(   19) = (   0.0000000   0.4285714   0.3333333), wk =   0.0063492
        k(   20) = (   0.0000000   0.4285714   0.4444444), wk =   0.0063492
        k(   21) = (   0.2000000   0.0000000   0.0000000), wk =   0.0063492
        k(   22) = (   0.2000000   0.0000000   0.1111111), wk =   0.0063492
        k(   23) = (   0.2000000   0.0000000   0.2222222), wk =   0.0063492
        k(   24) = (   0.2000000   0.0000000   0.3333333), wk =   0.0063492
        k(   25) = (   0.2000000   0.0000000   0.4444444), wk =   0.0063492
        k(   26) = (   0.2000000   0.1428571   0.0000000), wk =   0.0063492
        k(   27) = (   0.2000000   0.1428571   0.1111111), wk =   0.0063492
        k(   28) = (   0.2000000   0.1428571   0.2222222), wk =   0.0063492
        k(   29) = (   0.2000000   0.1428571   0.3333333), wk =   0.0063492
        k(   30) = (   0.2000000   0.1428571   0.4444444), wk =   0.0063492
        k(   31) = (   0.2000000   0.2857143   0.0000000), wk =   0.0063492
        k(   32) = (   0.2000000   0.2857143   0.1111111), wk =   0.0063492
        k(   33) = (   0.2000000   0.2857143   0.2222222), wk =   0.0063492
        k(   34) = (   0.2000000   0.2857143   0.3333333), wk =   0.0063492
        k(   35) = (   0.2000000   0.2857143   0.4444444), wk =   0.0063492
        k(   36) = (   0.2000000   0.4285714   0.0000000), wk =   0.0063492
        k(   37) = (   0.2000000   0.4285714   0.1111111), wk =   0.0063492
        k(   38) = (   0.2000000   0.4285714   0.2222222), wk =   0.0063492
        k(   39) = (   0.2000000   0.4285714   0.3333333), wk =   0.0063492
        k(   40) = (   0.2000000   0.4285714   0.4444444), wk =   0.0063492
        k(   41) = (   0.4000000   0.0000000   0.0000000), wk =   0.0063492
        k(   42) = (   0.4000000   0.0000000   0.1111111), wk =   0.0063492
        k(   43) = (   0.4000000   0.0000000   0.2222222), wk =   0.0063492
        k(   44) = (   0.4000000   0.0000000   0.3333333), wk =   0.0063492
        k(   45) = (   0.4000000   0.0000000   0.4444444), wk =   0.0063492
        k(   46) = (   0.4000000   0.1428571   0.0000000), wk =   0.0063492
        k(   47) = (   0.4000000   0.1428571   0.1111111), wk =   0.0063492
        k(   48) = (   0.4000000   0.1428571   0.2222222), wk =   0.0063492
        k(   49) = (   0.4000000   0.1428571   0.3333333), wk =   0.0063492
        k(   50) = (   0.4000000   0.1428571   0.4444444), wk =   0.0063492
        k(   51) = (   0.4000000   0.2857143   0.0000000), wk =   0.0063492
        k(   52) = (   0.4000000   0.2857143   0.1111111), wk =   0.0063492
        k(   53) = (   0.4000000   0.2857143   0.2222222), wk =   0.0063492
        k(   54) = (   0.4000000   0.2857143   0.3333333), wk =   0.0063492
        k(   55) = (   0.4000000   0.2857143   0.4444444), wk =   0.0063492
        k(   56) = (   0.4000000   0.4285714   0.0000000), wk =   0.0063492
        k(   57) = (   0.4000000   0.4285714   0.1111111), wk =   0.0063492
        k(   58) = (   0.4000000   0.4285714   0.2222222), wk =   0.0063492
        k(   59) = (   0.4000000   0.4285714   0.3333333), wk =   0.0063492
        k(   60) = (   0.4000000   0.4285714   0.4444444), wk =   0.0063492
        k(   61) = (   0.0000000  -0.1428571   0.1111111), wk =   0.0063492
        k(   62) = (   0.0000000  -0.1428571   0.2222222), wk =   0.0063492
        k(   63) = (   0.0000000  -0.1428571   0.3333333), wk =   0.0063492
        k(   64) = (   0.0000000  -0.1428571   0.4444444), wk =   0.0063492
        k(   65) = (   0.0000000  -0.2857143   0.1111111), wk =   0.0063492
        k(   66) = (   0.0000000  -0.2857143   0.2222222), wk =   0.0063492
        k(   67) = (   0.0000000  -0.2857143   0.3333333), wk =   0.0063492
        k(   68) = (   0.0000000  -0.2857143   0.4444444), wk =   0.0063492
        k(   69) = (   0.0000000  -0.4285714   0.1111111), wk =   0.0063492
        k(   70) = (   0.0000000  -0.4285714   0.2222222), wk =   0.0063492
        k(   71) = (   0.0000000  -0.4285714   0.3333333), wk =   0.0063492
        k(   72) = (   0.0000000  -0.4285714   0.4444444), wk =   0.0063492
        k(   73) = (  -0.2000000   0.0000000   0.1111111), wk =   0.0063492
        k(   74) = (  -0.2000000   0.0000000   0.2222222), wk =   0.0063492
        k(   75) = (  -0.2000000   0.0000000   0.3333333), wk =   0.0063492
        k(   76) = (  -0.2000000   0.0000000   0.4444444), wk =   0.0063492
        k(   77) = (  -0.2000000   0.1428571   0.0000000), wk =   0.0063492
        k(   78) = (  -0.2000000  -0.1428571   0.1111111), wk =   0.0063492
        k(   79) = (  -0.2000000   0.1428571  -0.1111111), wk =   0.0063492
        k(   80) = (   0.2000000  -0.1428571  -0.1111111), wk =   0.0063492
        k(   81) = (  -0.2000000  -0.1428571   0.2222222), wk =   0.0063492
        k(   82) = (  -0.2000000   0.1428571  -0.2222222), wk =   0.0063492
        k(   83) = (   0.2000000  -0.1428571  -0.2222222), wk =   0.0063492
        k(   84) = (  -0.2000000  -0.1428571   0.3333333), wk =   0.0063492
        k(   85) = (  -0.2000000   0.1428571  -0.3333333), wk =   0.0063492
        k(   86) = (   0.2000000  -0.1428571  -0.3333333), wk =   0.0063492
        k(   87) = (  -0.2000000  -0.1428571   0.4444444), wk =   0.0063492
        k(   88) = (  -0.2000000   0.1428571  -0.4444444), wk =   0.0063492
        k(   89) = (   0.2000000  -0.1428571  -0.4444444), wk =   0.0063492
        k(   90) = (  -0.2000000   0.2857143   0.0000000), wk =   0.0063492
        k(   91) = (  -0.2000000  -0.2857143   0.1111111), wk =   0.0063492
        k(   92) = (  -0.2000000   0.2857143  -0.1111111), wk =   0.0063492
        k(   93) = (   0.2000000  -0.2857143  -0.1111111), wk =   0.0063492
        k(   94) = (  -0.2000000  -0.2857143   0.2222222), wk =   0.0063492
        k(   95) = (  -0.2000000   0.2857143  -0.2222222), wk =   0.0063492
        k(   96) = (   0.2000000  -0.2857143  -0.2222222), wk =   0.0063492
        k(   97) = (  -0.2000000  -0.2857143   0.3333333), wk =   0.0063492
        k(   98) = (  -0.2000000   0.2857143  -0.3333333), wk =   0.0063492
        k(   99) = (   0.2000000  -0.2857143  -0.3333333), wk =   0.0063492
        k(  100) = (  -0.2000000  -0.2857143   0.4444444), wk =   0.0063492
        k(  101) = (  -0.2000000   0.2857143  -0.4444444), wk =   0.0063492
        k(  102) = (   0.2000000  -0.2857143  -0.4444444), wk =   0.0063492
        k(  103) = (  -0.2000000   0.4285714   0.0000000), wk =   0.0063492
        k(  104) = (  -0.2000000  -0.4285714   0.1111111), wk =   0.0063492
        k(  105) = (  -0.2000000   0.4285714  -0.1111111), wk =   0.0063492
        k(  106) = (   0.2000000  -0.4285714  -0.1111111), wk =   0.0063492
        k(  107) = (  -0.2000000  -0.4285714   0.2222222), wk =   0.0063492
        k(  108) = (  -0.2000000   0.4285714  -0.2222222), wk =   0.0063492
        k(  109) = (   0.2000000  -0.4285714  -0.2222222), wk =   0.0063492
        k(  110) = (  -0.2000000  -0.4285714   0.3333333), wk =   0.0063492
        k(  111) = (  -0.2000000   0.4285714  -0.3333333), wk =   0.0063492
        k(  112) = (   0.2000000  -0.4285714  -0.3333333), wk =   0.0063492
        k(  113) = (  -0.2000000  -0.4285714   0.4444444), wk =   0.0063492
        k(  114) = (  -0.2000000   0.4285714  -0.4444444), wk =   0.0063492
        k(  115) = (   0.2000000  -0.4285714  -0.4444444), wk =   0.0063492
        k(  116) = (  -0.4000000   0.0000000   0.1111111), wk =   0.0063492
        k(  117) = (  -0.4000000   0.0000000   0.2222222), wk =   0.0063492
        k(  118) = (  -0.4000000   0.0000000   0.3333333), wk =   0.0063492
        k(  119) = (  -0.4000000   0.0000000   0.4444444), wk =   0.0063492
        k(  120) = (  -0.4000000   0.1428571   0.0000000), wk =   0.0063492
        k(  121) = (  -0.4000000  -0.1428571   0.1111111), wk =   0.0063492
        k(  122) = (  -0.4000000   0.1428571  -0.1111111), wk =   0.0063492
        k(  123) = (   0.4000000  -0.1428571  -0.1111111), wk =   0.0063492
        k(  124) = (  -0.4000000  -0.1428571   0.2222222), wk =   0.0063492
        k(  125) = (  -0.4000000   0.1428571  -0.2222222), wk =   0.0063492
        k(  126) = (   0.4000000  -0.1428571  -0.2222222), wk =   0.0063492
        k(  127) = (  -0.4000000  -0.1428571   0.3333333), wk =   0.0063492
        k(  128) = (  -0.4000000   0.1428571  -0.3333333), wk =   0.0063492
        k(  129) = (   0.4000000  -0.1428571  -0.3333333), wk =   0.0063492
        k(  130) = (  -0.4000000  -0.1428571   0.4444444), wk =   0.0063492
        k(  131) = (  -0.4000000   0.1428571  -0.4444444), wk =   0.0063492
        k(  132) = (   0.4000000  -0.1428571  -0.4444444), wk =   0.0063492
        k(  133) = (  -0.4000000   0.2857143   0.0000000), wk =   0.0063492
        k(  134) = (  -0.4000000  -0.2857143   0.1111111), wk =   0.0063492
        k(  135) = (  -0.4000000   0.2857143  -0.1111111), wk =   0.0063492
        k(  136) = (   0.4000000  -0.2857143  -0.1111111), wk =   0.0063492
        k(  137) = (  -0.4000000  -0.2857143   0.2222222), wk =   0.0063492
        k(  138) = (  -0.4000000   0.2857143  -0.2222222), wk =   0.0063492
        k(  139) = (   0.4000000  -0.2857143  -0.2222222), wk =   0.0063492
        k(  140) = (  -0.4000000  -0.2857143   0.3333333), wk =   0.0063492
        k(  141) = (  -0.4000000   0.2857143  -0.3333333), wk =   0.0063492
        k(  142) = (   0.4000000  -0.2857143  -0.3333333), wk =   0.0063492
        k(  143) = (  -0.4000000  -0.2857143   0.4444444), wk =   0.0063492
        k(  144) = (  -0.4000000   0.2857143  -0.4444444), wk =   0.0063492
        k(  145) = (   0.4000000  -0.2857143  -0.4444444), wk =   0.0063492
        k(  146) = (  -0.4000000   0.4285714   0.0000000), wk =   0.0063492
        k(  147) = (  -0.4000000  -0.4285714   0.1111111), wk =   0.0063492
        k(  148) = (  -0.4000000   0.4285714  -0.1111111), wk =   0.0063492
        k(  149) = (   0.4000000  -0.4285714  -0.1111111), wk =   0.0063492
        k(  150) = (  -0.4000000  -0.4285714   0.2222222), wk =   0.0063492
        k(  151) = (  -0.4000000   0.4285714  -0.2222222), wk =   0.0063492
        k(  152) = (   0.4000000  -0.4285714  -0.2222222), wk =   0.0063492
        k(  153) = (  -0.4000000  -0.4285714   0.3333333), wk =   0.0063492
        k(  154) = (  -0.4000000   0.4285714  -0.3333333), wk =   0.0063492
        k(  155) = (   0.4000000  -0.4285714  -0.3333333), wk =   0.0063492
        k(  156) = (  -0.4000000  -0.4285714   0.4444444), wk =   0.0063492
        k(  157) = (  -0.4000000   0.4285714  -0.4444444), wk =   0.0063492
        k(  158) = (   0.4000000  -0.4285714  -0.4444444), wk =   0.0063492

     Dense  grid:  1168479 G-vectors     FFT dimensions: ( 200, 120, 100)

     Smooth grid:   263495 G-vectors     FFT dimensions: ( 120,  72,  60)

     Dynamical RAM for                 wfc:       3.58 MB

     Dynamical RAM for     wfc (w. buffer):    1134.28 MB

     Dynamical RAM for           str. fact:       4.46 MB

     Dynamical RAM for           local pot:       0.00 MB

     Dynamical RAM for          nlocal pot:       8.79 MB

     Dynamical RAM for                qrad:      10.54 MB

     Dynamical RAM for          rho,v,vnew:      14.38 MB

     Dynamical RAM for               rhoin:       4.79 MB

     Dynamical RAM for            rho*nmix:      35.66 MB

     Dynamical RAM for           G-vectors:       4.30 MB

     Dynamical RAM for          h,s,v(r/c):       2.38 MB

     Dynamical RAM for          <psi|beta>:       0.49 MB

     Dynamical RAM for                 psi:       7.16 MB

     Dynamical RAM for                hpsi:       7.16 MB

     Dynamical RAM for                spsi:       7.16 MB

     Dynamical RAM for      wfcinit/wfcrot:       9.03 MB

     Dynamical RAM for           addusdens:     226.21 MB

     Dynamical RAM for          addusforce:     259.77 MB

     Dynamical RAM for         addusstress:     225.66 MB

     Estimated static dynamical RAM per process >       1.20 GB

     Estimated max dynamical RAM per process >       1.46 GB

     Estimated total dynamical RAM >      23.28 GB

     Check: negative core charge=   -0.000003
     Generating pointlists ...
     new r_m :   0.0770 (alat units)  1.4378 (a.u.) for type    1
     new r_m :   0.0916 (alat units)  1.7121 (a.u.) for type    2
     new r_m :   0.0613 (alat units)  1.1457 (a.u.) for type    3
     new r_m :   0.0613 (alat units)  1.1457 (a.u.) for type    4

     Initial potential from superposition of free atoms

     starting charge  188.99132, renormalised to  189.00000
     Starting wfcs are  137 randomized atomic wfcs
     Checking if some PAW data can be deallocated... 
       PAW data deallocated on   13 nodes for type:  1
       PAW data deallocated on    4 nodes for type:  3

     total cpu time spent up to now is      150.3 secs

     Self-consistent Calculation

     iteration #  1     ecut=   100.00 Ry     beta= 0.40
     Davidson diagonalization with overlap
     ethr =  1.00E-02,  avg # of iterations =  3.7

     negative rho (up, down):  0.000E+00 7.457E-05

     total cpu time spent up to now is      605.3 secs

     total energy              =   -2124.00291551 Ry
     estimated scf accuracy    <       6.68773961 Ry

     total magnetization       =    19.00 Bohr mag/cell
     absolute magnetization    =    19.00 Bohr mag/cell

     iteration #  2     ecut=   100.00 Ry     beta= 0.40
     Davidson diagonalization with overlap
     ethr =  3.54E-03,  avg # of iterations =  2.0

     negative rho (up, down):  0.000E+00 4.216E-05

     total cpu time spent up to now is     1014.5 secs

     total energy              =   -2121.72687006 Ry
     estimated scf accuracy    <      28.22715606 Ry

     total magnetization       =     9.83 Bohr mag/cell
     absolute magnetization    =    11.43 Bohr mag/cell

     iteration #  3     ecut=   100.00 Ry     beta= 0.40
     Davidson diagonalization with overlap
     ethr =  3.54E-03,  avg # of iterations =  3.0

     negative rho (up, down):  0.000E+00 1.708E-05

     total cpu time spent up to now is     1377.9 secs

     total energy              =   -2123.36069464 Ry
     estimated scf accuracy    <      79.61136841 Ry

     total magnetization       =     1.00 Bohr mag/cell
     absolute magnetization    =     4.51 Bohr mag/cell

     iteration #  4     ecut=   100.00 Ry     beta= 0.40
     Davidson diagonalization with overlap
     ethr =  3.54E-03,  avg # of iterations =  1.9

     negative rho (up, down):  0.000E+00 5.781E-05

     total cpu time spent up to now is     1719.9 secs

     total energy              =   -2125.53276281 Ry
     estimated scf accuracy    <       4.07597758 Ry

     total magnetization       =    17.03 Bohr mag/cell
     absolute magnetization    =    17.09 Bohr mag/cell

     iteration #  5     ecut=   100.00 Ry     beta= 0.40
     Davidson diagonalization with overlap
     ethr =  2.16E-03,  avg # of iterations =  2.0

     negative rho (up, down):  0.000E+00 1.202E-04

     total cpu time spent up to now is     2067.4 secs

     total energy              =   -2125.57891867 Ry
     estimated scf accuracy    <      10.31779292 Ry

     total magnetization       =    14.74 Bohr mag/cell
     absolute magnetization    =    14.91 Bohr mag/cell

     iteration #  6     ecut=   100.00 Ry     beta= 0.40
     Davidson diagonalization with overlap
     ethr =  2.16E-03,  avg # of iterations =  1.5

     negative rho (up, down):  0.000E+00 2.866E-04

     total cpu time spent up to now is     2398.2 secs

     total energy              =   -2125.99304504 Ry
     estimated scf accuracy    <       0.40699677 Ry

     total magnetization       =    19.00 Bohr mag/cell
     absolute magnetization    =    19.00 Bohr mag/cell

     iteration #  7     ecut=   100.00 Ry     beta= 0.40
     Davidson diagonalization with overlap
     ethr =  2.15E-04,  avg # of iterations =  7.2

     negative rho (up, down):  0.000E+00 3.383E-04

     total cpu time spent up to now is     2800.3 secs

     total energy              =   -2125.99666590 Ry
     estimated scf accuracy    <       0.15897682 Ry

     total magnetization       =    19.00 Bohr mag/cell
     absolute magnetization    =    19.00 Bohr mag/cell

     iteration #  8     ecut=   100.00 Ry     beta= 0.40
     Davidson diagonalization with overlap
     ethr =  8.41E-05,  avg # of iterations =  8.0

     negative rho (up, down):  0.000E+00 4.668E-04

     total cpu time spent up to now is     3218.5 secs

     total energy              =   -2125.99817695 Ry
     estimated scf accuracy    <       0.49572726 Ry

     total magnetization       =    19.00 Bohr mag/cell
     absolute magnetization    =    19.00 Bohr mag/cell

     iteration #  9     ecut=   100.00 Ry     beta= 0.40
     Davidson diagonalization with overlap
     ethr =  8.41E-05,  avg # of iterations =  1.3

     negative rho (up, down):  0.000E+00 6.554E-04

     total cpu time spent up to now is     3543.0 secs

     total energy              =   -2126.02241668 Ry
     estimated scf accuracy    <       0.17847378 Ry

     total magnetization       =    19.00 Bohr mag/cell
     absolute magnetization    =    19.01 Bohr mag/cell

     iteration # 10     ecut=   100.00 Ry     beta= 0.40
     Davidson diagonalization with overlap
     ethr =  8.41E-05,  avg # of iterations =  1.0

     negative rho (up, down):  0.000E+00 8.609E-04

     total cpu time spent up to now is     3859.5 secs

     total energy              =   -2126.02781258 Ry
     estimated scf accuracy    <       0.02568625 Ry

     total magnetization       =    19.00 Bohr mag/cell
     absolute magnetization    =    19.01 Bohr mag/cell

     iteration # 11     ecut=   100.00 Ry     beta= 0.40
     Davidson diagonalization with overlap
     c_bands:  1 eigenvalues not converged
     c_bands:  1 eigenvalues not converged
     c_bands:  1 eigenvalues not converged
     c_bands:  1 eigenvalues not converged
     c_bands:  1 eigenvalues not converged
     c_bands:  1 eigenvalues not converged
     c_bands:  1 eigenvalues not converged
     c_bands:  1 eigenvalues not converged
     ethr =  1.36E-05,  avg # of iterations = 12.4

     negative rho (up, down):  0.000E+00 9.655E-04

     total cpu time spent up to now is     4341.5 secs

     total energy              =   -2126.03008558 Ry
     estimated scf accuracy    <       0.01055584 Ry

     total magnetization       =    19.00 Bohr mag/cell
     absolute magnetization    =    19.03 Bohr mag/cell

     iteration # 12     ecut=   100.00 Ry     beta= 0.40
     Davidson diagonalization with overlap
     c_bands:  1 eigenvalues not converged
     c_bands:  1 eigenvalues not converged
     c_bands:  1 eigenvalues not converged
     ethr =  5.59E-06,  avg # of iterations =  4.4

     negative rho (up, down):  0.000E+00 9.422E-04

     total cpu time spent up to now is     4728.3 secs

     total energy              =   -2126.03114329 Ry
     estimated scf accuracy    <       0.00274107 Ry

     total magnetization       =    19.00 Bohr mag/cell
     absolute magnetization    =    19.03 Bohr mag/cell

     iteration # 13     ecut=   100.00 Ry     beta= 0.40
     Davidson diagonalization with overlap
     c_bands:  1 eigenvalues not converged
     ethr =  1.45E-06,  avg # of iterations =  5.5

     negative rho (up, down):  0.000E+00 9.371E-04

     total cpu time spent up to now is     5168.8 secs

     total energy              =   -2126.03187372 Ry
     estimated scf accuracy    <       0.00159331 Ry

     total magnetization       =    19.00 Bohr mag/cell
     absolute magnetization    =    19.04 Bohr mag/cell

     iteration # 14     ecut=   100.00 Ry     beta= 0.40
     Davidson diagonalization with overlap
     ethr =  8.43E-07,  avg # of iterations =  1.4

     negative rho (up, down):  0.000E+00 9.247E-04

     total cpu time spent up to now is     5498.0 secs

     total energy              =   -2126.03193937 Ry
     estimated scf accuracy    <       0.00048920 Ry

     total magnetization       =    19.00 Bohr mag/cell
     absolute magnetization    =    19.04 Bohr mag/cell

     iteration # 15     ecut=   100.00 Ry     beta= 0.40
     Davidson diagonalization with overlap
     ethr =  2.59E-07,  avg # of iterations =  2.4

     negative rho (up, down):  0.000E+00 9.225E-04

     total cpu time spent up to now is     5855.7 secs

     total energy              =   -2126.03197720 Ry
     estimated scf accuracy    <       0.00028231 Ry

     total magnetization       =    19.00 Bohr mag/cell
     absolute magnetization    =    19.04 Bohr mag/cell

     iteration # 16     ecut=   100.00 Ry     beta= 0.40
     Davidson diagonalization with overlap
     ethr =  1.49E-07,  avg # of iterations =  1.1

     negative rho (up, down):  0.000E+00 9.162E-04

     total cpu time spent up to now is     6175.9 secs

     total energy              =   -2126.03199332 Ry
     estimated scf accuracy    <       0.00002952 Ry

     total magnetization       =    19.00 Bohr mag/cell
     absolute magnetization    =    19.04 Bohr mag/cell

     iteration # 17     ecut=   100.00 Ry     beta= 0.40
     Davidson diagonalization with overlap
     ethr =  1.56E-08,  avg # of iterations =  2.4

     negative rho (up, down):  0.000E+00 9.142E-04

     total cpu time spent up to now is     6552.9 secs

     total energy              =   -2126.03199919 Ry
     estimated scf accuracy    <       0.00010940 Ry

     total magnetization       =    19.00 Bohr mag/cell
     absolute magnetization    =    19.04 Bohr mag/cell

     iteration # 18     ecut=   100.00 Ry     beta= 0.40
     Davidson diagonalization with overlap
     ethr =  1.56E-08,  avg # of iterations =  1.0

     negative rho (up, down):  0.000E+00 9.155E-04

     total cpu time spent up to now is     6869.6 secs

     total energy              =   -2126.03199851 Ry
     estimated scf accuracy    <       0.00005691 Ry

     total magnetization       =    19.00 Bohr mag/cell
     absolute magnetization    =    19.04 Bohr mag/cell

     iteration # 19     ecut=   100.00 Ry     beta= 0.40
     Davidson diagonalization with overlap
     ethr =  1.56E-08,  avg # of iterations =  1.0

     negative rho (up, down):  0.000E+00 9.151E-04

     total cpu time spent up to now is     7186.6 secs

     total energy              =   -2126.03200017 Ry
     estimated scf accuracy    <       0.00000758 Ry

     total magnetization       =    19.00 Bohr mag/cell
     absolute magnetization    =    19.04 Bohr mag/cell

     iteration # 20     ecut=   100.00 Ry     beta= 0.40
     Davidson diagonalization with overlap
     ethr =  4.01E-09,  avg # of iterations =  1.0

     negative rho (up, down):  0.000E+00 9.156E-04

     total cpu time spent up to now is     7503.9 secs

     total energy              =   -2126.03200055 Ry
     estimated scf accuracy    <       0.00000358 Ry

     total magnetization       =    19.00 Bohr mag/cell
     absolute magnetization    =    19.04 Bohr mag/cell

     iteration # 21     ecut=   100.00 Ry     beta= 0.40
     Davidson diagonalization with overlap
     ethr =  1.90E-09,  avg # of iterations =  1.1

     negative rho (up, down):  0.000E+00 9.162E-04

     total cpu time spent up to now is     7822.2 secs

     total energy              =   -2126.03200070 Ry
     estimated scf accuracy    <       0.00000102 Ry

     total magnetization       =    19.00 Bohr mag/cell
     absolute magnetization    =    19.04 Bohr mag/cell

     iteration # 22     ecut=   100.00 Ry     beta= 0.40
     Davidson diagonalization with overlap
     ethr =  5.41E-10,  avg # of iterations =  2.6

     negative rho (up, down):  0.000E+00 9.164E-04

     total cpu time spent up to now is     8190.0 secs

     total energy              =   -2126.03200095 Ry
     estimated scf accuracy    <       0.00000016 Ry

     total magnetization       =    19.00 Bohr mag/cell
     absolute magnetization    =    19.04 Bohr mag/cell

     iteration # 23     ecut=   100.00 Ry     beta= 0.40
     Davidson diagonalization with overlap
     ethr =  8.36E-11,  avg # of iterations =  4.5

     negative rho (up, down):  0.000E+00 9.162E-04

     total cpu time spent up to now is     8640.8 secs

     total energy              =   -2126.03200101 Ry
     estimated scf accuracy    <       0.00000007 Ry

     total magnetization       =    19.00 Bohr mag/cell
     absolute magnetization    =    19.04 Bohr mag/cell

     iteration # 24     ecut=   100.00 Ry     beta= 0.40
     Davidson diagonalization with overlap
     ethr =  3.63E-11,  avg # of iterations =  1.4

     negative rho (up, down):  0.000E+00 9.161E-04

     total cpu time spent up to now is     8969.2 secs

     total energy              =   -2126.03200102 Ry
     estimated scf accuracy    <       0.00000003 Ry

     total magnetization       =    19.00 Bohr mag/cell
     absolute magnetization    =    19.04 Bohr mag/cell

     iteration # 25     ecut=   100.00 Ry     beta= 0.40
     Davidson diagonalization with overlap
     ethr =  1.69E-11,  avg # of iterations =  1.5

     negative rho (up, down):  0.000E+00 9.161E-04

     total cpu time spent up to now is     9300.3 secs

     total energy              =   -2126.03200102 Ry
     estimated scf accuracy    <          2.5E-09 Ry

     total magnetization       =    19.00 Bohr mag/cell
     absolute magnetization    =    19.04 Bohr mag/cell

     iteration # 26     ecut=   100.00 Ry     beta= 0.40
     Davidson diagonalization with overlap
     ethr =  1.30E-12,  avg # of iterations =  4.6

     negative rho (up, down):  0.000E+00 9.161E-04

     total cpu time spent up to now is     9826.3 secs

     total energy              =   -2126.03200102 Ry
     estimated scf accuracy    <          5.0E-10 Ry

     total magnetization       =    19.00 Bohr mag/cell
     absolute magnetization    =    19.04 Bohr mag/cell

     iteration # 27     ecut=   100.00 Ry     beta= 0.40
     Davidson diagonalization with overlap
     ethr =  2.66E-13,  avg # of iterations =  2.8

     negative rho (up, down):  0.000E+00 9.161E-04

     total cpu time spent up to now is    10196.5 secs

     total energy              =   -2126.03200102 Ry
     estimated scf accuracy    <          4.8E-10 Ry

     total magnetization       =    19.00 Bohr mag/cell
     absolute magnetization    =    19.04 Bohr mag/cell

     iteration # 28     ecut=   100.00 Ry     beta= 0.40
     Davidson diagonalization with overlap
     ethr =  2.54E-13,  avg # of iterations =  2.0

     negative rho (up, down):  0.000E+00 9.161E-04

     total cpu time spent up to now is    10548.3 secs

     total energy              =   -2126.03200102 Ry
     estimated scf accuracy    <          4.8E-10 Ry

     total magnetization       =    19.00 Bohr mag/cell
     absolute magnetization    =    19.04 Bohr mag/cell

     iteration # 29     ecut=   100.00 Ry     beta= 0.40
     Davidson diagonalization with overlap
     ethr =  2.53E-13,  avg # of iterations =  1.7

     negative rho (up, down):  0.000E+00 9.161E-04

     Magnetic moment per site:
     atom:    1    charge:    7.8937    magn:    0.0006    constr:    0.0000
     atom:    2    charge:   12.6775    magn:    3.5882    constr:    0.0000
     atom:    3    charge:   12.6827    magn:    3.5761    constr:    0.0000
     atom:    4    charge:   12.6943    magn:    3.5471    constr:    0.0000
     atom:    5    charge:   12.6848    magn:    3.5735    constr:    0.0000
     atom:    6    charge:    0.7591    magn:    0.0112    constr:    0.0000
     atom:    7    charge:    0.7606    magn:    0.0087    constr:    0.0000
     atom:    8    charge:    0.7606    magn:    0.0114    constr:    0.0000
     atom:    9    charge:    0.7569    magn:    0.0089    constr:    0.0000
     atom:   10    charge:    4.0371    magn:    0.1332    constr:    0.0000
     atom:   11    charge:    4.0495    magn:    0.0871    constr:    0.0000
     atom:   12    charge:    4.0388    magn:    0.1299    constr:    0.0000
     atom:   13    charge:    4.0351    magn:    0.0937    constr:    0.0000
     atom:   14    charge:    4.0783    magn:    0.0952    constr:    0.0000
     atom:   15    charge:    4.0886    magn:    0.1252    constr:    0.0000
     atom:   16    charge:    4.0842    magn:    0.0849    constr:    0.0000
     atom:   17    charge:    4.0881    magn:    0.1308    constr:    0.0000
     atom:   18    charge:    4.0502    magn:    0.1442    constr:    0.0000
     atom:   19    charge:    4.0486    magn:    0.1223    constr:    0.0000
     atom:   20    charge:    4.0559    magn:    0.1493    constr:    0.0000
     atom:   21    charge:    4.0537    magn:    0.1320    constr:    0.0000
     atom:   22    charge:    4.0537    magn:    0.1384    constr:    0.0000
     atom:   23    charge:    4.0570    magn:    0.1185    constr:    0.0000
     atom:   24    charge:    4.0526    magn:    0.1485    constr:    0.0000
     atom:   25    charge:    4.0575    magn:    0.1294    constr:    0.0000

     total cpu time spent up to now is    10882.0 secs

     End of self-consistent calculation

 ------ SPIN UP ------------


          k = 0.0000 0.0000 0.0000 ( 32925 PWs)   bands (ev):

   -83.7070 -83.7048 -83.6878 -83.5593 -49.8852 -49.8518 -49.8224 -49.7613
   -49.6771 -49.6453 -49.6420 -49.6147 -49.5993 -49.5816 -49.5331 -49.4095
   -43.5858 -15.8605 -15.8194 -15.6106 -15.5847 -15.5419 -15.3874 -15.1924
   -13.2444 -13.1171 -13.0162 -12.9993 -12.7280 -12.6721 -12.6369 -12.5745
   -12.5338 -12.4598 -12.4473 -12.3412  -3.2122  -2.7183  -2.5464  -2.0678
    -1.5786  -1.1482  -1.0250  -0.9039  -0.8819  -0.6213  -0.5422  -0.4797
    -0.3135  -0.1563  -0.0090   0.3238   0.5487   0.5768   1.1882   1.2315
     1.2902   1.3823   1.5262   1.5480   1.6460   1.6772   1.9672   2.0654
     2.2705   2.4165   2.4403   2.4830   2.5624   2.6288   2.6813   2.7022
     2.7810   3.0105   3.2422   3.3107   3.3761   3.4633   3.5434   3.5821
     3.7386   3.8870   4.0555   4.1517   4.2383   4.2639   4.4160   4.4642
     4.5318   4.6778   4.6925   4.7087   4.8703   4.9155   4.9713   5.0653
     5.1614   5.4040   5.5568   5.8528   6.0101   6.1895   6.3083   6.3999
    11.0013  13.0996  13.2495  13.9105  14.1476  14.3749  15.0208  15.1849
    15.2510  15.3750

     occupation numbers 
     1.0000   1.0000   1.0000   1.0000   1.0000   1.0000   1.0000   1.0000
     1.0000   1.0000   1.0000   1.0000   1.0000   1.0000   1.0000   1.0000
     1.0000   1.0000   1.0000   1.0000   1.0000   1.0000   1.0000   1.0000
     1.0000   1.0000   1.0000   1.0000   1.0000   1.0000   1.0000   1.0000
     1.0000   1.0000   1.0000   1.0000   1.0000   1.0000   1.0000   1.0000
     1.0000   1.0000   1.0000   1.0000   1.0000   1.0000   1.0000   1.0000
     1.0000   1.0000   1.0000   1.0000   1.0000   1.0000   1.0000   1.0000
     1.0000   1.0000   1.0000   1.0000   1.0000   1.0000   1.0000   1.0000
     1.0000   1.0000   1.0000   1.0000   1.0000   1.0000   1.0000   1.0000
     1.0000   1.0000   1.0000   1.0000   1.0000   1.0000   1.0000   1.0000
     1.0000   1.0000   1.0000   1.0000   1.0000   1.0000   1.0000   1.0000
     1.0000   1.0000   1.0000   1.0000   1.0000   1.0000   1.0000   1.0000
     1.0000   1.0000   1.0000   1.0000   1.0000   1.0000   1.0000   1.0000
     0.0000   0.0000   0.0000   0.0000   0.0000   0.0000   0.0000   0.0000
     0.0000   0.0000

          k = 0.0000 0.0000 0.2220 ( 32901 PWs)   bands (ev):

   -83.7070 -83.7048 -83.6878 -83.5593 -49.8852 -49.8518 -49.8224 -49.7613
   -49.6771 -49.6453 -49.6420 -49.6147 -49.5993 -49.5816 -49.5331 -49.4095
   -43.5858 -15.8865 -15.7850 -15.6160 -15.5933 -15.5127 -15.3807 -15.2012
   -13.2453 -13.1220 -13.0254 -12.9946 -12.7231 -12.6706 -12.6445 -12.5774
   -12.5382 -12.4663 -12.4584 -12.3512  -3.1830  -2.7045  -2.5443  -2.0893
    -1.5177  -1.1236  -1.0348  -0.8949  -0.8710  -0.6590  -0.5196  -0.4243
    -0.3014  -0.1241  -0.0576   0.3515   0.5370   0.5635   1.1870   1.2203
     1.3058   1.3859   1.5393   1.5759   1.6376   1.6543   1.9323   2.1175
     2.2407   2.3777   2.4110   2.4480   2.5334   2.5884   2.6604   2.7065
     2.9168   2.9811   3.1793   3.3174   3.3510   3.4413   3.5071   3.6068
     3.7480   3.8437   4.0801   4.1464   4.2550   4.3215   4.3466   4.4596
     4.4940   4.6295   4.6750   4.7265   4.8612   4.9169   5.0527   5.1266
     5.1795   5.3897   5.5986   5.8372   6.0058   6.1688   6.2790   6.3731
    11.1573  13.1706  13.3299  13.9177  14.2082  14.3521  14.9656  15.1246
    15.1802  15.3364

     occupation numbers 
     1.0000   1.0000   1.0000   1.0000   1.0000   1.0000   1.0000   1.0000
     1.0000   1.0000   1.0000   1.0000   1.0000   1.0000   1.0000   1.0000
     1.0000   1.0000   1.0000   1.0000   1.0000   1.0000   1.0000   1.0000
     1.0000   1.0000   1.0000   1.0000   1.0000   1.0000   1.0000   1.0000
     1.0000   1.0000   1.0000   1.0000   1.0000   1.0000   1.0000   1.0000
     1.0000   1.0000   1.0000   1.0000   1.0000   1.0000   1.0000   1.0000
     1.0000   1.0000   1.0000   1.0000   1.0000   1.0000   1.0000   1.0000
     1.0000   1.0000   1.0000   1.0000   1.0000   1.0000   1.0000   1.0000
     1.0000   1.0000   1.0000   1.0000   1.0000   1.0000   1.0000   1.0000
     1.0000   1.0000   1.0000   1.0000   1.0000   1.0000   1.0000   1.0000
     1.0000   1.0000   1.0000   1.0000   1.0000   1.0000   1.0000   1.0000
     1.0000   1.0000   1.0000   1.0000   1.0000   1.0000   1.0000   1.0000
     1.0000   1.0000   1.0000   1.0000   1.0000   1.0000   1.0000   1.0000
     0.0000   0.0000   0.0000   0.0000   0.0000   0.0000   0.0000   0.0000
     0.0000   0.0000

          k = 0.0000 0.0000 0.4441 ( 32914 PWs)   bands (ev):

   -83.7070 -83.7048 -83.6878 -83.5593 -49.8852 -49.8518 -49.8224 -49.7613
   -49.6771 -49.6453 -49.6420 -49.6147 -49.5993 -49.5816 -49.5331 -49.4095
   -43.5858 -15.9193 -15.7294 -15.6210 -15.5958 -15.4662 -15.3618 -15.2270
   -13.2473 -13.1363 -13.0402 -12.9911 -12.7126 -12.6780 -12.6481 -12.5840
   -12.5508 -12.4954 -12.4745 -12.3766  -3.1000  -2.6783  -2.5336  -2.1573
    -1.3512  -1.0746  -1.0399  -0.8837  -0.8416  -0.6885  -0.5168  -0.3065
    -0.2260  -0.1795  -0.0409   0.4053   0.4505   0.6108   1.1532   1.2457
     1.3319   1.3988   1.5597   1.5822   1.6462   1.6657   1.8350   2.1994
     2.2243   2.3064   2.3475   2.3853   2.4439   2.5154   2.6097   2.7102
     2.8035   3.0063   3.1942   3.2822   3.3517   3.3777   3.4590   3.6735
     3.7231   3.8071   4.0809   4.1417   4.2032   4.2978   4.3517   4.3809
     4.5109   4.5449   4.6476   4.7830   4.9304   4.9735   5.1425   5.1952
     5.3120   5.3497   5.6842   5.8111   5.9895   6.1190   6.1925   6.2931
    11.5780  13.3504  13.5480  13.9820  14.3200  14.3600  14.7262  14.9197
    15.1524  15.2449

     occupation numbers 
     1.0000   1.0000   1.0000   1.0000   1.0000   1.0000   1.0000   1.0000
     1.0000   1.0000   1.0000   1.0000   1.0000   1.0000   1.0000   1.0000
     1.0000   1.0000   1.0000   1.0000   1.0000   1.0000   1.0000   1.0000
     1.0000   1.0000   1.0000   1.0000   1.0000   1.0000   1.0000   1.0000
     1.0000   1.0000   1.0000   1.0000   1.0000   1.0000   1.0000   1.0000
     1.0000   1.0000   1.0000   1.0000   1.0000   1.0000   1.0000   1.0000
     1.0000   1.0000   1.0000   1.0000   1.0000   1.0000   1.0000   1.0000
     1.0000   1.0000   1.0000   1.0000   1.0000   1.0000   1.0000   1.0000
     1.0000   1.0000   1.0000   1.0000   1.0000   1.0000   1.0000   1.0000
     1.0000   1.0000   1.0000   1.0000   1.0000   1.0000   1.0000   1.0000
     1.0000   1.0000   1.0000   1.0000   1.0000   1.0000   1.0000   1.0000
     1.0000   1.0000   1.0000   1.0000   1.0000   1.0000   1.0000   1.0000
     1.0000   1.0000   1.0000   1.0000   1.0000   1.0000   1.0000   1.0000
     0.0000   0.0000   0.0000   0.0000   0.0000   0.0000   0.0000   0.0000
     0.0000   0.0000

          k = 0.0000 0.0000 0.6661 ( 32938 PWs)   bands (ev):

   -83.7070 -83.7048 -83.6878 -83.5593 -49.8852 -49.8518 -49.8224 -49.7613
   -49.6771 -49.6453 -49.6420 -49.6147 -49.5993 -49.5816 -49.5331 -49.4095
   -43.5858 -15.9449 -15.6747 -15.6153 -15.5946 -15.4241 -15.3375 -15.2659
   -13.2491 -13.1553 -13.0532 -12.9917 -12.7225 -12.6718 -12.6366 -12.5930
   -12.5672 -12.5317 -12.4908 -12.4062  -2.9771  -2.6733  -2.5085  -2.2612
    -1.1681  -1.0542  -0.9795  -0.8815  -0.7813  -0.6934  -0.5126  -0.3765
    -0.1977  -0.0450   0.0653   0.2468   0.5805   0.7145   1.1024   1.3045
     1.3658   1.3926   1.5187   1.5878   1.6345   1.7008   1.7444   2.1131
     2.2273   2.2563   2.3084   2.3650   2.3982   2.4616   2.5066   2.5694
     2.7425   2.8623   3.1722   3.2124   3.3106   3.4588   3.5793   3.6459
     3.7497   3.8352   3.9523   4.0565   4.1868   4.1983   4.3065   4.3764
     4.4987   4.5519   4.6970   4.8278   5.0200   5.1037   5.2200   5.2836
     5.3020   5.4953   5.7532   5.8078   5.9518   6.0452   6.0839   6.1650
    12.1615  13.5689  13.7918  14.1000  14.2305  14.5203  14.5574  14.7753
    14.8692  14.9885

     occupation numbers 
     1.0000   1.0000   1.0000   1.0000   1.0000   1.0000   1.0000   1.0000
     1.0000   1.0000   1.0000   1.0000   1.0000   1.0000   1.0000   1.0000
     1.0000   1.0000   1.0000   1.0000   1.0000   1.0000   1.0000   1.0000
     1.0000   1.0000   1.0000   1.0000   1.0000   1.0000   1.0000   1.0000
     1.0000   1.0000   1.0000   1.0000   1.0000   1.0000   1.0000   1.0000
     1.0000   1.0000   1.0000   1.0000   1.0000   1.0000   1.0000   1.0000
     1.0000   1.0000   1.0000   1.0000   1.0000   1.0000   1.0000   1.0000
     1.0000   1.0000   1.0000   1.0000   1.0000   1.0000   1.0000   1.0000
     1.0000   1.0000   1.0000   1.0000   1.0000   1.0000   1.0000   1.0000
     1.0000   1.0000   1.0000   1.0000   1.0000   1.0000   1.0000   1.0000
     1.0000   1.0000   1.0000   1.0000   1.0000   1.0000   1.0000   1.0000
     1.0000   1.0000   1.0000   1.0000   1.0000   1.0000   1.0000   1.0000
     1.0000   1.0000   1.0000   1.0000   1.0000   1.0000   1.0000   1.0000
     0.0000   0.0000   0.0000   0.0000   0.0000   0.0000   0.0000   0.0000
     0.0000   0.0000

          k = 0.0000 0.0000 0.8882 ( 32928 PWs)   bands (ev):

   -83.7070 -83.7048 -83.6878 -83.5593 -49.8852 -49.8518 -49.8224 -49.7613
   -49.6771 -49.6453 -49.6420 -49.6147 -49.5993 -49.5816 -49.5331 -49.4095
   -43.5858 -15.9591 -15.6408 -15.6067 -15.5920 -15.3897 -15.3237 -15.3032
   -13.2499 -13.1690 -13.0612 -12.9932 -12.7393 -12.6476 -12.6276 -12.6068
   -12.5806 -12.5523 -12.5033 -12.4263  -2.8428  -2.7196  -2.4682  -2.3627
    -1.1116  -1.0276  -0.9006  -0.8574  -0.6845  -0.6634  -0.5397  -0.5354
    -0.0923   0.0603   0.0845   0.1525   0.7780   0.9092   1.0237   1.1850
     1.3698   1.4223   1.5080   1.5553   1.5857   1.6275   1.8071   1.9781
     2.1637   2.2607   2.2733   2.3221   2.3601   2.4369   2.4959   2.5463
     2.7795   2.8216   2.9858   3.0611   3.3591   3.5370   3.6204   3.6970
     3.8196   3.8747   3.9037   4.0028   4.0492   4.0704   4.3293   4.3670
     4.4961   4.5506   4.7851   4.8822   5.0638   5.1030   5.2139   5.3431
     5.4936   5.6794   5.7563   5.8129   5.8378   5.9705   6.0197   6.0558
    12.8084  13.4303  13.8202  14.2244  14.2990  14.5490  14.5974  14.6933
    14.7669  14.8819

     occupation numbers 
     1.0000   1.0000   1.0000   1.0000   1.0000   1.0000   1.0000   1.0000
     1.0000   1.0000   1.0000   1.0000   1.0000   1.0000   1.0000   1.0000
     1.0000   1.0000   1.0000   1.0000   1.0000   1.0000   1.0000   1.0000
     1.0000   1.0000   1.0000   1.0000   1.0000   1.0000   1.0000   1.0000
     1.0000   1.0000   1.0000   1.0000   1.0000   1.0000   1.0000   1.0000
     1.0000   1.0000   1.0000   1.0000   1.0000   1.0000   1.0000   1.0000
     1.0000   1.0000   1.0000   1.0000   1.0000   1.0000   1.0000   1.0000
     1.0000   1.0000   1.0000   1.0000   1.0000   1.0000   1.0000   1.0000
     1.0000   1.0000   1.0000   1.0000   1.0000   1.0000   1.0000   1.0000
     1.0000   1.0000   1.0000   1.0000   1.0000   1.0000   1.0000   1.0000
     1.0000   1.0000   1.0000   1.0000   1.0000   1.0000   1.0000   1.0000
     1.0000   1.0000   1.0000   1.0000   1.0000   1.0000   1.0000   1.0000
     1.0000   1.0000   1.0000   1.0000   1.0000   1.0000   1.0000   1.0000
     0.0000   0.0000   0.0000   0.0000   0.0000   0.0000   0.0000   0.0000
     0.0000   0.0000

          k = 0.0000 0.2391 0.0000 ( 32913 PWs)   bands (ev):

   -83.7070 -83.7048 -83.6878 -83.5593 -49.8852 -49.8518 -49.8224 -49.7613
   -49.6771 -49.6453 -49.6420 -49.6147 -49.5993 -49.5816 -49.5331 -49.4095
   -43.5858 -15.8739 -15.7846 -15.6102 -15.5844 -15.5377 -15.3892 -15.2109
   -13.2489 -13.1185 -13.0308 -13.0038 -12.7343 -12.7037 -12.6159 -12.5558
   -12.5403 -12.4633 -12.4341 -12.3367  -3.1876  -2.7409  -2.5143  -2.0720
    -1.5504  -1.1614  -1.0313  -0.9127  -0.8261  -0.6241  -0.5280  -0.4668
    -0.2641  -0.1545   0.0417   0.3508   0.4703   0.6311   1.1874   1.2211
     1.2604   1.3556   1.4326   1.5153   1.5552   1.7703   2.0336   2.0924
     2.2797   2.3963   2.4284   2.4841   2.5306   2.5683   2.6491   2.6839
     2.8242   3.0131   3.2565   3.3016   3.3679   3.4818   3.5285   3.5950
     3.8220   3.8770   3.9636   4.1244   4.1703   4.2434   4.3933   4.4374
     4.5109   4.5599   4.6748   4.7896   4.9018   4.9436   4.9838   5.0954
     5.1606   5.3780   5.6556   5.7531   5.9592   6.1114   6.4268   6.4577
    11.1590  13.1854  13.3373  13.8483  14.1825  14.4821  14.9824  15.1206
    15.2529  15.3391

     occupation numbers 
     1.0000   1.0000   1.0000   1.0000   1.0000   1.0000   1.0000   1.0000
     1.0000   1.0000   1.0000   1.0000   1.0000   1.0000   1.0000   1.0000
     1.0000   1.0000   1.0000   1.0000   1.0000   1.0000   1.0000   1.0000
     1.0000   1.0000   1.0000   1.0000   1.0000   1.0000   1.0000   1.0000
     1.0000   1.0000   1.0000   1.0000   1.0000   1.0000   1.0000   1.0000
     1.0000   1.0000   1.0000   1.0000   1.0000   1.0000   1.0000   1.0000
     1.0000   1.0000   1.0000   1.0000   1.0000   1.0000   1.0000   1.0000
     1.0000   1.0000   1.0000   1.0000   1.0000   1.0000   1.0000   1.0000
     1.0000   1.0000   1.0000   1.0000   1.0000   1.0000   1.0000   1.0000
     1.0000   1.0000   1.0000   1.0000   1.0000   1.0000   1.0000   1.0000
     1.0000   1.0000   1.0000   1.0000   1.0000   1.0000   1.0000   1.0000
     1.0000   1.0000   1.0000   1.0000   1.0000   1.0000   1.0000   1.0000
     1.0000   1.0000   1.0000   1.0000   1.0000   1.0000   1.0000   1.0000
     0.0000   0.0000   0.0000   0.0000   0.0000   0.0000   0.0000   0.0000
     0.0000   0.0000

          k = 0.0000 0.2391 0.2220 ( 32922 PWs)   bands (ev):

   -83.7070 -83.7048 -83.6878 -83.5593 -49.8852 -49.8518 -49.8224 -49.7613
   -49.6771 -49.6453 -49.6420 -49.6147 -49.5993 -49.5816 -49.5331 -49.4095
   -43.5858 -15.9041 -15.7444 -15.6129 -15.5933 -15.5062 -15.3805 -15.2278
   -13.2498 -13.1263 -13.0381 -12.9985 -12.7377 -12.6909 -12.6296 -12.5667
   -12.5449 -12.4691 -12.4375 -12.3438  -3.1589  -2.7253  -2.5150  -2.0908
    -1.4927  -1.1355  -1.0377  -0.8987  -0.8179  -0.6577  -0.5074  -0.4133
    -0.2467  -0.1326  -0.0136   0.3643   0.4547   0.6343   1.1397   1.2297
     1.2857   1.3507   1.4806   1.5251   1.5650   1.7700   2.0421   2.0847
     2.2261   2.3782   2.3919   2.4628   2.5155   2.5362   2.6523   2.6676
     2.9284   2.9995   3.1809   3.3071   3.3576   3.4554   3.4893   3.6022
     3.7853   3.8774   3.9763   4.1407   4.1801   4.2665   4.3669   4.4049
     4.4614   4.5646   4.6972   4.7854   4.8621   4.9669   5.0426   5.1521
     5.1678   5.3681   5.6925   5.7540   5.9319   6.0957   6.4032   6.4400
    11.3087  13.2528  13.4216  13.8839  14.2261  14.4576  14.9348  15.0276
    15.1863  15.3058

     occupation numbers 
     1.0000   1.0000   1.0000   1.0000   1.0000   1.0000   1.0000   1.0000
     1.0000   1.0000   1.0000   1.0000   1.0000   1.0000   1.0000   1.0000
     1.0000   1.0000   1.0000   1.0000   1.0000   1.0000   1.0000   1.0000
     1.0000   1.0000   1.0000   1.0000   1.0000   1.0000   1.0000   1.0000
     1.0000   1.0000   1.0000   1.0000   1.0000   1.0000   1.0000   1.0000
     1.0000   1.0000   1.0000   1.0000   1.0000   1.0000   1.0000   1.0000
     1.0000   1.0000   1.0000   1.0000   1.0000   1.0000   1.0000   1.0000
     1.0000   1.0000   1.0000   1.0000   1.0000   1.0000   1.0000   1.0000
     1.0000   1.0000   1.0000   1.0000   1.0000   1.0000   1.0000   1.0000
     1.0000   1.0000   1.0000   1.0000   1.0000   1.0000   1.0000   1.0000
     1.0000   1.0000   1.0000   1.0000   1.0000   1.0000   1.0000   1.0000
     1.0000   1.0000   1.0000   1.0000   1.0000   1.0000   1.0000   1.0000
     1.0000   1.0000   1.0000   1.0000   1.0000   1.0000   1.0000   1.0000
     0.0000   0.0000   0.0000   0.0000   0.0000   0.0000   0.0000   0.0000
     0.0000   0.0000

          k = 0.0000 0.2391 0.4441 ( 32913 PWs)   bands (ev):

   -83.7070 -83.7048 -83.6878 -83.5593 -49.8852 -49.8518 -49.8224 -49.7613
   -49.6771 -49.6453 -49.6420 -49.6147 -49.5993 -49.5816 -49.5331 -49.4095
   -43.5858 -15.9289 -15.7003 -15.6157 -15.5956 -15.4523 -15.3603 -15.2602
   -13.2508 -13.1432 -13.0478 -12.9946 -12.7464 -12.6773 -12.6533 -12.5902
   -12.5500 -12.4802 -12.4529 -12.3648  -3.0773  -2.6933  -2.5098  -2.1559
    -1.3327  -1.0784  -1.0367  -0.8840  -0.7872  -0.6826  -0.5058  -0.2727
    -0.2061  -0.1449  -0.0511   0.3348   0.4744   0.6412   1.0823   1.2548
     1.2744   1.3728   1.5352   1.5738   1.6176   1.7400   1.9558   2.1480
     2.1773   2.3178   2.3314   2.3954   2.4525   2.5058   2.5977   2.6650
     2.8269   3.0073   3.1942   3.3074   3.3390   3.3853   3.4375   3.6175
     3.7282   3.8596   4.0734   4.1181   4.1463   4.2009   4.3230   4.3914
     4.4265   4.5744   4.7067   4.7959   4.8510   5.0380   5.1402   5.1883
     5.2922   5.3403   5.6930   5.7946   5.8751   6.0750   6.3414   6.3887
    11.7157  13.4293  13.6407  13.9952  14.3506  14.4165  14.7323  14.8459
    15.1061  15.2460

     occupation numbers 
     1.0000   1.0000   1.0000   1.0000   1.0000   1.0000   1.0000   1.0000
     1.0000   1.0000   1.0000   1.0000   1.0000   1.0000   1.0000   1.0000
     1.0000   1.0000   1.0000   1.0000   1.0000   1.0000   1.0000   1.0000
     1.0000   1.0000   1.0000   1.0000   1.0000   1.0000   1.0000   1.0000
     1.0000   1.0000   1.0000   1.0000   1.0000   1.0000   1.0000   1.0000
     1.0000   1.0000   1.0000   1.0000   1.0000   1.0000   1.0000   1.0000
     1.0000   1.0000   1.0000   1.0000   1.0000   1.0000   1.0000   1.0000
     1.0000   1.0000   1.0000   1.0000   1.0000   1.0000   1.0000   1.0000
     1.0000   1.0000   1.0000   1.0000   1.0000   1.0000   1.0000   1.0000
     1.0000   1.0000   1.0000   1.0000   1.0000   1.0000   1.0000   1.0000
     1.0000   1.0000   1.0000   1.0000   1.0000   1.0000   1.0000   1.0000
     1.0000   1.0000   1.0000   1.0000   1.0000   1.0000   1.0000   1.0000
     1.0000   1.0000   1.0000   1.0000   1.0000   1.0000   1.0000   1.0000
     0.0000   0.0000   0.0000   0.0000   0.0000   0.0000   0.0000   0.0000
     0.0000   0.0000

          k = 0.0000 0.2391 0.6661 ( 32939 PWs)   bands (ev):

   -83.7070 -83.7048 -83.6878 -83.5593 -49.8852 -49.8518 -49.8224 -49.7613
   -49.6771 -49.6453 -49.6420 -49.6147 -49.5993 -49.5816 -49.5331 -49.4095
   -43.5858 -15.9461 -15.6594 -15.6092 -15.5933 -15.4036 -15.3366 -15.3003
   -13.2515 -13.1626 -13.0567 -12.9941 -12.7597 -12.6863 -12.6530 -12.6191
   -12.5489 -12.4938 -12.4709 -12.3903  -2.9573  -2.6770  -2.4928  -2.2589
    -1.1517  -1.0458  -0.9717  -0.8845  -0.7271  -0.6817  -0.4993  -0.3284
    -0.1917  -0.0474   0.0662   0.2209   0.5754   0.6836   1.0210   1.2072
     1.3118   1.4421   1.5430   1.6252   1.6718   1.7513   1.8512   2.0823
     2.1612   2.2535   2.2885   2.3703   2.4133   2.4791   2.4948   2.5662
     2.6851   2.8664   3.1401   3.2553   3.3419   3.4575   3.5113   3.6398
     3.6943   3.8327   4.0302   4.0874   4.1219   4.1577   4.2178   4.4083
     4.4508   4.5467   4.7324   4.8497   4.9745   5.1015   5.1729   5.2766
     5.2872   5.4460   5.6580   5.7426   5.9237   6.0541   6.2543   6.3165
    12.2840  13.6444  13.8746  14.1625  14.3058  14.5409  14.5909  14.7087
    14.8821  14.9665

     occupation numbers 
     1.0000   1.0000   1.0000   1.0000   1.0000   1.0000   1.0000   1.0000
     1.0000   1.0000   1.0000   1.0000   1.0000   1.0000   1.0000   1.0000
     1.0000   1.0000   1.0000   1.0000   1.0000   1.0000   1.0000   1.0000
     1.0000   1.0000   1.0000   1.0000   1.0000   1.0000   1.0000   1.0000
     1.0000   1.0000   1.0000   1.0000   1.0000   1.0000   1.0000   1.0000
     1.0000   1.0000   1.0000   1.0000   1.0000   1.0000   1.0000   1.0000
     1.0000   1.0000   1.0000   1.0000   1.0000   1.0000   1.0000   1.0000
     1.0000   1.0000   1.0000   1.0000   1.0000   1.0000   1.0000   1.0000
     1.0000   1.0000   1.0000   1.0000   1.0000   1.0000   1.0000   1.0000
     1.0000   1.0000   1.0000   1.0000   1.0000   1.0000   1.0000   1.0000
     1.0000   1.0000   1.0000   1.0000   1.0000   1.0000   1.0000   1.0000
     1.0000   1.0000   1.0000   1.0000   1.0000   1.0000   1.0000   1.0000
     1.0000   1.0000   1.0000   1.0000   1.0000   1.0000   1.0000   1.0000
     0.0000   0.0000   0.0000   0.0000   0.0000   0.0000   0.0000   0.0000
     0.0000   0.0000

          k = 0.0000 0.2391 0.8882 ( 32940 PWs)   bands (ev):

   -83.7070 -83.7048 -83.6878 -83.5593 -49.8852 -49.8518 -49.8224 -49.7613
   -49.6771 -49.6453 -49.6420 -49.6147 -49.5993 -49.5816 -49.5331 -49.4095
   -43.5858 -15.9526 -15.6341 -15.6016 -15.5899 -15.3921 -15.3361 -15.2989
   -13.2524 -13.1743 -13.0628 -12.9944 -12.7732 -12.6963 -12.6521 -12.6312
   -12.5378 -12.5107 -12.4809 -12.4096  -2.8281  -2.7089  -2.4620  -2.3587
    -1.0901  -1.0109  -0.8984  -0.8635  -0.6544  -0.6280  -0.5243  -0.4838
    -0.1092   0.0370   0.1063   0.1678   0.7204   0.8151   0.9353   1.0679
     1.3689   1.5238   1.5593   1.5988   1.6806   1.6985   1.8497   1.9485
     2.1358   2.2427   2.2725   2.2982   2.3817   2.4060   2.4900   2.5342
     2.6816   2.8509   2.9487   3.1229   3.3776   3.5161   3.5956   3.6517
     3.7659   3.8636   3.9288   3.9853   4.0828   4.1270   4.2213   4.4067
     4.4727   4.5271   4.7989   4.8866   5.0606   5.1055   5.2159   5.3054
     5.3326   5.5354   5.6103   5.6725   5.9958   6.0451   6.1768   6.2539
    12.9158  13.5325  13.8920  14.2908  14.3640  14.5717  14.6264  14.7139
    14.7694  14.8585

     occupation numbers 
     1.0000   1.0000   1.0000   1.0000   1.0000   1.0000   1.0000   1.0000
     1.0000   1.0000   1.0000   1.0000   1.0000   1.0000   1.0000   1.0000
     1.0000   1.0000   1.0000   1.0000   1.0000   1.0000   1.0000   1.0000
     1.0000   1.0000   1.0000   1.0000   1.0000   1.0000   1.0000   1.0000
     1.0000   1.0000   1.0000   1.0000   1.0000   1.0000   1.0000   1.0000
     1.0000   1.0000   1.0000   1.0000   1.0000   1.0000   1.0000   1.0000
     1.0000   1.0000   1.0000   1.0000   1.0000   1.0000   1.0000   1.0000
     1.0000   1.0000   1.0000   1.0000   1.0000   1.0000   1.0000   1.0000
     1.0000   1.0000   1.0000   1.0000   1.0000   1.0000   1.0000   1.0000
     1.0000   1.0000   1.0000   1.0000   1.0000   1.0000   1.0000   1.0000
     1.0000   1.0000   1.0000   1.0000   1.0000   1.0000   1.0000   1.0000
     1.0000   1.0000   1.0000   1.0000   1.0000   1.0000   1.0000   1.0000
     1.0000   1.0000   1.0000   1.0000   1.0000   1.0000   1.0000   1.0000
     0.0000   0.0000   0.0000   0.0000   0.0000   0.0000   0.0000   0.0000
     0.0000   0.0000

          k = 0.0000 0.4781 0.0000 ( 32886 PWs)   bands (ev):

   -83.7070 -83.7048 -83.6878 -83.5593 -49.8852 -49.8518 -49.8224 -49.7613
   -49.6771 -49.6453 -49.6420 -49.6147 -49.5993 -49.5816 -49.5331 -49.4095
   -43.5858 -15.8858 -15.7148 -15.6092 -15.5840 -15.5300 -15.4015 -15.2526
   -13.2555 -13.1230 -13.0774 -13.0059 -12.7468 -12.6993 -12.6357 -12.5851
   -12.5010 -12.4459 -12.4153 -12.3305  -3.1190  -2.8048  -2.4268  -2.1037
    -1.4707  -1.1956  -1.0371  -0.9374  -0.7135  -0.6226  -0.4725  -0.4043
    -0.2359  -0.0710   0.1293   0.3241   0.4464   0.7138   1.0493   1.1079
     1.2901   1.3257   1.3715   1.4550   1.5250   1.8778   1.9602   2.1648
     2.1979   2.2336   2.3147   2.3901   2.5949   2.6112   2.6890   2.7750
     2.9547   2.9971   3.2179   3.2839   3.3454   3.4149   3.5167   3.6411
     3.8040   3.8653   3.9266   4.0049   4.1456   4.1980   4.3035   4.3339
     4.4318   4.4738   4.8179   4.8469   4.9292   4.9717   5.0011   5.1237
     5.2052   5.3390   5.5166   5.6477   5.9208   6.2631   6.4922   6.5237
    11.5877  13.3995  13.4888  13.5725  14.3597  14.6754  14.8583  14.9634
    15.2149  15.3813

     occupation numbers 
     1.0000   1.0000   1.0000   1.0000   1.0000   1.0000   1.0000   1.0000
     1.0000   1.0000   1.0000   1.0000   1.0000   1.0000   1.0000   1.0000
     1.0000   1.0000   1.0000   1.0000   1.0000   1.0000   1.0000   1.0000
     1.0000   1.0000   1.0000   1.0000   1.0000   1.0000   1.0000   1.0000
     1.0000   1.0000   1.0000   1.0000   1.0000   1.0000   1.0000   1.0000
     1.0000   1.0000   1.0000   1.0000   1.0000   1.0000   1.0000   1.0000
     1.0000   1.0000   1.0000   1.0000   1.0000   1.0000   1.0000   1.0000
     1.0000   1.0000   1.0000   1.0000   1.0000   1.0000   1.0000   1.0000
     1.0000   1.0000   1.0000   1.0000   1.0000   1.0000   1.0000   1.0000
     1.0000   1.0000   1.0000   1.0000   1.0000   1.0000   1.0000   1.0000
     1.0000   1.0000   1.0000   1.0000   1.0000   1.0000   1.0000   1.0000
     1.0000   1.0000   1.0000   1.0000   1.0000   1.0000   1.0000   1.0000
     1.0000   1.0000   1.0000   1.0000   1.0000   1.0000   1.0000   1.0000
     0.0000   0.0000   0.0000   0.0000   0.0000   0.0000   0.0000   0.0000
     0.0000   0.0000

          k = 0.0000 0.4781 0.2220 ( 32900 PWs)   bands (ev):

   -83.7070 -83.7048 -83.6878 -83.5593 -49.8852 -49.8518 -49.8224 -49.7613
   -49.6771 -49.6453 -49.6420 -49.6147 -49.5993 -49.5816 -49.5331 -49.4095
   -43.5858 -15.9049 -15.6905 -15.6076 -15.5899 -15.4975 -15.3938 -15.2710
   -13.2553 -13.1360 -13.0728 -13.0040 -12.7619 -12.6892 -12.6433 -12.6027
   -12.5064 -12.4467 -12.4157 -12.3348  -3.0917  -2.7861  -2.4319  -2.1166
    -1.4217  -1.1670  -1.0340  -0.9199  -0.7075  -0.6411  -0.4397  -0.3808
    -0.1864  -0.0887   0.0759   0.2912   0.4649   0.7092   1.0229   1.0811
     1.2424   1.3914   1.4296   1.4827   1.5543   1.8778   1.9794   2.1131
     2.1493   2.2140   2.3124   2.3601   2.5996   2.6114   2.6831   2.7638
     2.9737   3.0306   3.1650   3.2865   3.3704   3.3894   3.5009   3.6115
     3.7651   3.8376   3.9169   3.9992   4.1481   4.1970   4.2900   4.3372
     4.3831   4.4920   4.8126   4.8774   4.9063   5.0027   5.0343   5.1692
     5.1945   5.3333   5.5023   5.6229   5.9559   6.2536   6.4739   6.5191
    11.7217  13.4535  13.5575  13.6765  14.3867  14.6460  14.8329  14.9270
    15.1529  15.2283

     occupation numbers 
     1.0000   1.0000   1.0000   1.0000   1.0000   1.0000   1.0000   1.0000
     1.0000   1.0000   1.0000   1.0000   1.0000   1.0000   1.0000   1.0000
     1.0000   1.0000   1.0000   1.0000   1.0000   1.0000   1.0000   1.0000
     1.0000   1.0000   1.0000   1.0000   1.0000   1.0000   1.0000   1.0000
     1.0000   1.0000   1.0000   1.0000   1.0000   1.0000   1.0000   1.0000
     1.0000   1.0000   1.0000   1.0000   1.0000   1.0000   1.0000   1.0000
     1.0000   1.0000   1.0000   1.0000   1.0000   1.0000   1.0000   1.0000
     1.0000   1.0000   1.0000   1.0000   1.0000   1.0000   1.0000   1.0000
     1.0000   1.0000   1.0000   1.0000   1.0000   1.0000   1.0000   1.0000
     1.0000   1.0000   1.0000   1.0000   1.0000   1.0000   1.0000   1.0000
     1.0000   1.0000   1.0000   1.0000   1.0000   1.0000   1.0000   1.0000
     1.0000   1.0000   1.0000   1.0000   1.0000   1.0000   1.0000   1.0000
     1.0000   1.0000   1.0000   1.0000   1.0000   1.0000   1.0000   1.0000
     0.0000   0.0000   0.0000   0.0000   0.0000   0.0000   0.0000   0.0000
     0.0000   0.0000

          k = 0.0000 0.4781 0.4441 ( 32922 PWs)   bands (ev):

   -83.7070 -83.7048 -83.6878 -83.5593 -49.8852 -49.8518 -49.8224 -49.7613
   -49.6771 -49.6453 -49.6420 -49.6147 -49.5993 -49.5816 -49.5331 -49.4095
   -43.5858 -15.9187 -15.6725 -15.6066 -15.5867 -15.4382 -15.3758 -15.2984
   -13.2543 -13.1543 -13.0699 -13.0024 -12.7899 -12.7068 -12.6553 -12.6249
   -12.5083 -12.4502 -12.4243 -12.3489  -3.0144  -2.7414  -2.4393  -2.1710
    -1.2825  -1.0935  -1.0178  -0.8911  -0.6880  -0.6400  -0.4455  -0.2441
[...]
     atom   14 type  3   force =    -0.11472883    0.00408891    0.03610133
     atom   15 type  3   force =     0.10957243   -0.00144940    0.04185602
     atom   16 type  3   force =     0.11437974    0.00261339   -0.02766906
     atom   17 type  3   force =    -0.10586093    0.00139777   -0.03732116
     atom   18 type  3   force =     0.03806194    0.08363540   -0.03298572
     atom   19 type  3   force =    -0.03543298   -0.08596135   -0.03362423
     atom   20 type  3   force =    -0.03647774    0.08400700    0.02990212
     atom   21 type  3   force =     0.03704826   -0.08231896    0.03502489
     atom   22 type  3   force =    -0.04207619   -0.08651301    0.03041101
     atom   23 type  3   force =     0.04444734    0.08204240    0.02556331
     atom   24 type  3   force =     0.03817517   -0.08262339   -0.03368603
     atom   25 type  3   force =    -0.04026701    0.08690983   -0.03748133
     The non-local contrib.  to forces
     atom    1 type  2   force =     0.03812692    0.01979604    0.01851939
     atom    2 type  1   force =     0.05383355    0.04464318    0.16707584
     atom    3 type  1   force =     0.08907082   -0.00375081    0.14676760
     atom    4 type  1   force =    -0.09560814   -0.06244716   -0.15670993
     atom    5 type  1   force =    -0.09248227    0.01962873   -0.13675516
     atom    6 type  4   force =     0.02075167    0.00121351    0.05712881
     atom    7 type  4   force =    -0.00608407   -0.01198916    0.08186529
     atom    8 type  4   force =    -0.02847863    0.01057775   -0.05782795
     atom    9 type  4   force =     0.03217292    0.00182471   -0.06729333
     atom   10 type  3   force =     0.28932575   -0.02279188   -1.45496465
     atom   11 type  3   force =    -0.12279139   -0.01929781   -1.39524870
     atom   12 type  3   force =    -0.34945109    0.01635321    1.46122688
     atom   13 type  3   force =     0.21822004    0.00714755    1.43632421
     atom   14 type  3   force =     1.17798696   -0.02807292   -0.65742606
     atom   15 type  3   force =    -1.14485772    0.01918152   -0.76012321
     atom   16 type  3   force =    -1.16998084   -0.03543678    0.43030512
     atom   17 type  3   force =     1.13348218   -0.00749972    0.66333704
     atom   18 type  3   force =    -0.53899052   -1.02846679    0.81475913
     atom   19 type  3   force =     0.53101698    1.08242274    0.80343710
     atom   20 type  3   force =     0.52004387   -1.00603323   -0.75427859
     atom   21 type  3   force =    -0.54546553    1.00483612   -0.83076506
     atom   22 type  3   force =     0.58824576    1.04089533   -0.78659785
     atom   23 type  3   force =    -0.66229579   -0.97609477   -0.68627618
     atom   24 type  3   force =    -0.52242136    1.01290319    0.82384344
     atom   25 type  3   force =     0.57686686   -1.03730348    0.88649029
     The ionic contribution  to forces
     atom    1 type  2   force =    -1.59398199    0.57851968    0.53028342
     atom    2 type  1   force =    -2.62838540   -0.46058586   -0.31111883
     atom    3 type  1   force =    -7.80083536    1.24122973   -0.33258673
     atom    4 type  1   force =     4.40401414    1.04593591    0.25975880
     atom    5 type  1   force =     7.82664151   -1.71107240    0.69454343
     atom    6 type  4   force =    -3.21196939   -0.04265460    1.11589772
     atom    7 type  4   force =     0.32000495    1.11778727    1.58531267
     atom    8 type  4   force =     4.18563301    0.01388304   -1.20157797
     atom    9 type  4   force =    -1.58152501   -1.30306159   -1.72571667
     atom   10 type  3   force =   -11.04182546    0.08829447    2.52610673
     atom   11 type  3   force =     5.01139880    2.16307370    0.91169497
     atom   12 type  3   force =    12.17762096   -0.14700124   -2.63491893
     atom   13 type  3   force =    -7.72121493   -2.03999786   -1.71527294
     atom   14 type  3   force =     0.24851388   -1.76814552    5.69930589
     atom   15 type  3   force =    -2.47365222   -0.14265794    7.73376623
     atom   16 type  3   force =    -1.27890559    2.45468198   -3.44068365
     atom   17 type  3   force =     3.61150468    0.14469897   -7.04893027
     atom   18 type  3   force =    -4.55546637    2.91951399   -3.54744513
     atom   19 type  3   force =    -0.65082037   -3.91755978   -1.94284784
     atom   20 type  3   force =     4.81874420    3.44747801    3.04186385
     atom   21 type  3   force =    -1.60184773   -2.26256377    3.23051726
     atom   22 type  3   force =     5.14727283   -3.57395434    3.38762719
     atom   23 type  3   force =     1.65644395    1.71736184    0.46934968
     atom   24 type  3   force =    -4.12601803   -2.71698034   -3.61308124
     atom   25 type  3   force =     0.85865494    3.15377663   -3.67184765
     The local contribution  to forces
     atom    1 type  2   force =     1.55267102   -0.61164279   -0.53847654
     atom    2 type  1   force =     2.56100394    0.42432685    0.14401867
     atom    3 type  1   force =     7.73856470   -1.23765604    0.18209006
     atom    4 type  1   force =    -4.30265168   -0.99296069   -0.10203088
     atom    5 type  1   force =    -7.76174863    1.69338237   -0.55467329
     atom    6 type  4   force =     3.24411628    0.04424043   -1.08450162
     atom    7 type  4   force =    -0.35110070   -1.11423053   -1.57421784
     atom    8 type  4   force =    -4.20743837   -0.02080995    1.16644270
     atom    9 type  4   force =     1.59504017    1.30430032    1.70025772
     atom   10 type  3   force =    10.72766837   -0.06380815   -1.09734059
     atom   11 type  3   force =    -4.87116290   -2.14004619    0.45937439
     atom   12 type  3   force =   -11.80292113    0.13102264    1.20168369
     atom   13 type  3   force =     7.47900944    2.03238550    0.29981992
     atom   14 type  3   force =    -1.53302671    1.80006702   -5.01144326
     atom   15 type  3   force =     3.72005018    0.12217920   -6.93821744
     atom   16 type  3   force =     2.55514707   -2.41686769    2.98647392
     atom   17 type  3   force =    -4.84284955   -0.13584667    6.35391848
     atom   18 type  3   force =     5.12841884   -1.81509232    2.70643650
     atom   19 type  3   force =     0.08836779    2.75738485    1.11247462
     atom   20 type  3   force =    -5.37132109   -2.36491429   -2.26388990
     atom   21 type  3   force =     2.18023044    1.18286460   -2.37165486
     atom   22 type  3   force =    -5.77308029    2.45429961   -2.57712794
     atom   23 type  3   force =    -0.95478894   -0.66652129    0.23673724
     atom   24 type  3   force =     4.68268033    1.62898024    2.76238153
     atom   25 type  3   force =    -1.47142700   -2.03719009    2.75526159
     The core correction contribution to forces
     atom    1 type  2   force =     0.00000000    0.00000000    0.00000000
     atom    2 type  1   force =    -0.00086674   -0.00061370   -0.00032865
     atom    3 type  1   force =    -0.00072574    0.00016003    0.00075880
     atom    4 type  1   force =     0.00190480    0.00087027    0.00017813
     atom    5 type  1   force =     0.00089892   -0.00038957   -0.00067272
     atom    6 type  4   force =    -0.00195303   -0.00016746   -0.00681058
     atom    7 type  4   force =     0.00148900    0.00057004   -0.00891754
     atom    8 type  4   force =     0.00210403   -0.00062531    0.00699948
     atom    9 type  4   force =    -0.00274103    0.00051805    0.00818209
     atom   10 type  3   force =    -0.00284005    0.00019024    0.01269650
     atom   11 type  3   force =     0.00151460    0.00010720    0.01207765
     atom   12 type  3   force =     0.00336675   -0.00016198   -0.01274371
     atom   13 type  3   force =    -0.00222550   -0.00004850   -0.01246389
     atom   14 type  3   force =    -0.00821275    0.00024019    0.00566205
     atom   15 type  3   force =     0.00803540   -0.00015223    0.00643047
     atom   16 type  3   force =     0.00810941    0.00023586   -0.00376613
     atom   17 type  3   force =    -0.00799034    0.00004541   -0.00564727
     atom   18 type  3   force =     0.00410471    0.00767568   -0.00673961
     atom   19 type  3   force =    -0.00399948   -0.00821398   -0.00668500
     atom   20 type  3   force =    -0.00394152    0.00747669    0.00620522
     atom   21 type  3   force =     0.00412654   -0.00745309    0.00692827
     atom   22 type  3   force =    -0.00451142   -0.00775376    0.00650801
     atom   23 type  3   force =     0.00508354    0.00729415    0.00575291
     atom   24 type  3   force =     0.00393912   -0.00752153   -0.00683330
     atom   25 type  3   force =    -0.00436392    0.00763256   -0.00738211
     The Hubbard contrib.    to forces
     atom    1 type  2   force =     0.00000000    0.00000000    0.00000000
     atom    2 type  1   force =     0.00000000    0.00000000    0.00000000
     atom    3 type  1   force =     0.00000000    0.00000000    0.00000000
     atom    4 type  1   force =     0.00000000    0.00000000    0.00000000
     atom    5 type  1   force =     0.00000000    0.00000000    0.00000000
     atom    6 type  4   force =     0.00000000    0.00000000    0.00000000
     atom    7 type  4   force =     0.00000000    0.00000000    0.00000000
     atom    8 type  4   force =     0.00000000    0.00000000    0.00000000
     atom    9 type  4   force =     0.00000000    0.00000000    0.00000000
     atom   10 type  3   force =     0.00000000    0.00000000    0.00000000
     atom   11 type  3   force =     0.00000000    0.00000000    0.00000000
     atom   12 type  3   force =     0.00000000    0.00000000    0.00000000
     atom   13 type  3   force =     0.00000000    0.00000000    0.00000000
     atom   14 type  3   force =     0.00000000    0.00000000    0.00000000
     atom   15 type  3   force =     0.00000000    0.00000000    0.00000000
     atom   16 type  3   force =     0.00000000    0.00000000    0.00000000
     atom   17 type  3   force =     0.00000000    0.00000000    0.00000000
     atom   18 type  3   force =     0.00000000    0.00000000    0.00000000
     atom   19 type  3   force =     0.00000000    0.00000000    0.00000000
     atom   20 type  3   force =     0.00000000    0.00000000    0.00000000
     atom   21 type  3   force =     0.00000000    0.00000000    0.00000000
     atom   22 type  3   force =     0.00000000    0.00000000    0.00000000
     atom   23 type  3   force =     0.00000000    0.00000000    0.00000000
     atom   24 type  3   force =     0.00000000    0.00000000    0.00000000
     atom   25 type  3   force =     0.00000000    0.00000000    0.00000000
     The SCF correction term to forces
     atom    1 type  2   force =     0.00000884    0.00000155   -0.00000080
     atom    2 type  1   force =     0.00000085    0.00000007   -0.00000171
     atom    3 type  1   force =    -0.00000678   -0.00000015    0.00000127
     atom    4 type  1   force =     0.00000432   -0.00000034    0.00000212
     atom    5 type  1   force =    -0.00000131   -0.00000001   -0.00000033
     atom    6 type  4   force =    -0.00000509   -0.00000003    0.00000096
     atom    7 type  4   force =     0.00000379   -0.00000021    0.00000003
     atom    8 type  4   force =    -0.00000398    0.00000004   -0.00000010
     atom    9 type  4   force =     0.00000572   -0.00000016    0.00000042
     atom   10 type  3   force =    -0.00000893    0.00000015   -0.00000366
     atom   11 type  3   force =     0.00000255   -0.00000011    0.00000156
     atom   12 type  3   force =    -0.00000626   -0.00000001   -0.00000342
     atom   13 type  3   force =     0.00000679    0.00000003   -0.00000152
     atom   14 type  3   force =     0.00000980    0.00000020    0.00000287
     atom   15 type  3   force =    -0.00000320    0.00000009    0.00000011
     atom   16 type  3   force =     0.00000970    0.00000007    0.00000182
     atom   17 type  3   force =    -0.00000791   -0.00000017    0.00000100
     atom   18 type  3   force =    -0.00000470    0.00000489    0.00000354
     atom   19 type  3   force =     0.00000211    0.00000487   -0.00000296
     atom   20 type  3   force =    -0.00000319   -0.00000013    0.00000169
     atom   21 type  3   force =     0.00000454   -0.00000277   -0.00000058
     atom   22 type  3   force =    -0.00000307    0.00000021    0.00000173
     atom   23 type  3   force =     0.00000459    0.00000252   -0.00000020
     atom   24 type  3   force =    -0.00000488   -0.00000490    0.00000368
     atom   25 type  3   force =     0.00000211   -0.00000574   -0.00000331

     Total force =     0.417130     Total SCF correction =     0.000032


     Computing stress (Cartesian axis) and pressure


     negative rho (up, down):  0.000E+00 9.161E-04
          total   stress  (Ry/bohr**3)                   (kbar)     P=      169.99
   0.00160335  -0.00005614  -0.00005011          235.86       -8.26       -7.37
  -0.00005614   0.00131036   0.00003563           -8.26      192.76        5.24
  -0.00005011   0.00003563   0.00055307           -7.37        5.24       81.36

     kinetic stress (kbar)  29724.83     11.82     -5.13
                               11.82  29930.73      3.88
                               -5.13      3.88  29578.91

     local   stress (kbar)  -4220.60   2787.01   1149.92
                             2787.01 -15167.62   -987.39
                             1149.92   -987.39  -6876.72

     nonloc. stress (kbar)  -7606.65      1.74      3.67
                                1.74  -7539.59     -2.38
                                3.67     -2.38  -7554.34

     hartree stress (kbar)  13638.09  -1119.89   -442.96
                            -1119.89  19573.82    391.79
                             -442.96    391.79  15573.83

     exc-cor stress (kbar)  -3135.24     -1.59     -0.86
                               -1.59  -3142.88      0.48
                               -0.86      0.48  -3140.87

     corecor stress (kbar)  -3457.72      0.67      0.62
                                0.67  -3455.36     -0.01
                                0.62     -0.01  -3455.54

     ewald   stress (kbar) -24706.85  -1688.02   -712.64
                            -1688.02 -20006.33    598.88
                             -712.64    598.88 -24043.91

     hubbard stress (kbar)      0.00      0.00      0.00
                                0.00      0.00      0.00
                                0.00      0.00      0.00

     DFT-D   stress (kbar)      0.00      0.00      0.00
                                0.00      0.00      0.00
                                0.00      0.00      0.00

     XDM     stress (kbar)      0.00      0.00      0.00
                                0.00      0.00      0.00
                                0.00      0.00      0.00

     dft-nl  stress (kbar)      0.00      0.00      0.00
                                0.00      0.00      0.00
                                0.00      0.00      0.00

     TS-vdW  stress (kbar)      0.00      0.00      0.00
                                0.00      0.00      0.00
                                0.00      0.00      0.00



     init_run     :    146.47s CPU    149.65s WALL (       1 calls)
     electrons    :  10556.68s CPU  10731.78s WALL (       1 calls)
     forces       :     58.05s CPU     59.22s WALL (       1 calls)
     stress       :    560.95s CPU    563.66s WALL (       1 calls)

     Called by init_run:
     wfcinit      :    136.55s CPU    139.27s WALL (       1 calls)
     wfcinit:atom :      2.13s CPU      2.15s WALL (     316 calls)
     wfcinit:wfcr :    126.09s CPU    128.73s WALL (     316 calls)
     potinit      :      3.61s CPU      3.73s WALL (       1 calls)
     hinit0       :      3.50s CPU      3.59s WALL (       1 calls)

     Called by electrons:
     c_bands      :   8612.99s CPU   8741.88s WALL (      29 calls)
     sum_band     :   1839.49s CPU   1878.49s WALL (      29 calls)
     v_of_rho     :     22.09s CPU     22.86s WALL (      30 calls)
     v_h          :      1.04s CPU      1.10s WALL (      30 calls)
     v_xc         :     22.45s CPU     23.21s WALL (      32 calls)
     newd         :     55.03s CPU     61.44s WALL (      30 calls)
     PAW_pot      :     23.34s CPU     23.43s WALL (      30 calls)
     mix_rho      :      4.78s CPU      4.95s WALL (      29 calls)

     Called by c_bands:
     init_us_2    :    167.37s CPU    168.58s WALL (   19276 calls)
     cegterg      :   8292.38s CPU   8419.18s WALL (    9164 calls)

     Called by sum_band:
     sum_band:wei :      0.40s CPU      0.40s WALL (      29 calls)
     sum_band:loo :   1718.81s CPU   1748.05s WALL (      29 calls)
     sum_band:buf :     44.94s CPU     45.40s WALL (    9164 calls)
     sum_band:ini :     80.71s CPU     81.20s WALL (    9164 calls)
     sum_band:cal :    240.63s CPU    245.80s WALL (    9164 calls)
     sum_band:bec :      3.00s CPU      3.11s WALL (    9164 calls)
     addusdens    :    118.10s CPU    127.75s WALL (      29 calls)
     addusd:skk   :      0.91s CPU      0.92s WALL (      87 calls)
     addusd:dgemm :     19.72s CPU     28.28s WALL (     174 calls)
     addusd:qvan2 :     96.65s CPU     97.10s WALL (     174 calls)

     Called by *egterg:
     cdiaghg      :    356.72s CPU    360.55s WALL (   36513 calls)
     cegterg:over :    489.94s CPU    498.74s WALL (   27349 calls)
     cegterg:upda :    324.52s CPU    327.74s WALL (   27349 calls)
     cegterg:last :    580.15s CPU    585.91s WALL (   15620 calls)
     h_psi        :   5693.70s CPU   5790.45s WALL (   36829 calls)
     s_psi        :    583.91s CPU    590.05s WALL (   36829 calls)
     g_psi        :     31.60s CPU     31.91s WALL (   27349 calls)

     Called by h_psi:
     h_psi:calbec :    614.87s CPU    626.97s WALL (   36829 calls)
     vloc_psi     :   4387.05s CPU   4464.24s WALL (   36829 calls)
     add_vuspsi   :    594.36s CPU    600.99s WALL (   36829 calls)

     General routines
     calbec       :    894.75s CPU    913.06s WALL (   47573 calls)
     fft          :     18.06s CPU     19.25s WALL (     788 calls)
     ffts         :      0.30s CPU      0.32s WALL (     118 calls)
     fftw         :   4084.88s CPU   4156.98s WALL ( 5758800 calls)
     interpolate  :      1.65s CPU      1.73s WALL (      60 calls)

     Parallel routines
     fft_scatt_xy :    788.98s CPU    803.42s WALL ( 5759706 calls)
     fft_scatt_yz :    853.18s CPU    870.71s WALL ( 5759706 calls)

     PAW routines
     PAW_pot      :     23.34s CPU     23.43s WALL (      30 calls)

     PWSCF        :      3h 8m CPU      3h11m WALL


   This run was terminated on:   5:16:47  16Dec2022            

=------------------------------------------------------------------------------=
   JOB DONE.
=------------------------------------------------------------------------------=
Note: The following floating-point exceptions are signalling: IEEE_INVALID_FLAG IEEE_UNDERFLOW_FLAG IEEE_DENORMAL
Note: The following floating-point exceptions are signalling: IEEE_DENORMAL
Note: The following floating-point exceptions are signalling: IEEE_DENORMAL
Note: The following floating-point exceptions are signalling: IEEE_DENORMAL
Note: The following floating-point exceptions are signalling: IEEE_DENORMAL
Note: The following floating-point exceptions are signalling: IEEE_INVALID_FLAG IEEE_DENORMAL
Note: The following floating-point exceptions are signalling: IEEE_DENORMAL
Note: The following floating-point exceptions are signalling: IEEE_DENORMAL
Note: The following floating-point exceptions are signalling: IEEE_DENORMAL
Note: The following floating-point exceptions are signalling: IEEE_DENORMAL
Note: The following floating-point exceptions are signalling: IEEE_DENORMAL
Note: The following floating-point exceptions are signalling: IEEE_DENORMAL
Note: The following floating-point exceptions are signalling: IEEE_DENORMAL
Note: The following floating-point exceptions are signalling: IEEE_DENORMAL
