
     Program PWSCF v.6.7MaX starts on 15Dec2022 at 22: 8:48 

     This program is part of the open-source Quantum ESPRESSO suite
     for quantum simulation of materials; please cite
         "P. Giannozzi et al., J. Phys.:Condens. Matter 21 395502 (2009);
         "P. Giannozzi et al., J. Phys.:Condens. Matter 29 465901 (2017);
          URL http://www.quantum-espresso.org", 
     in publications or presentations arising from this work. More details at
     http://www.quantum-espresso.org/quote

     Parallel version (MPI), running on    16 processors

     MPI processes distributed on     1 nodes
     R & G space division:  proc/nbgrp/npool/nimage =      16
     Reading input from scale_1da-03.in

     Current dimensions of program PWSCF are:
     Max number of different atomic species (ntypx) = 10
     Max number of k-points (npk) =  40000
     Max angular momentum in pseudopotentials (lmaxx) =  3
     Message from routine read_pp_mesh:
     mesh size missing, using the one in header
     file Fe.pbe-spn-kjpaw_psl.0.2.1.UPF: wavefunction(s)  3D renormalized
     file O.pbe-n-kjpaw_psl.0.1.UPF: wavefunction(s)  2P renormalized

     Subspace diagonalization in iterative solution of the eigenvalue problem:
     a serial algorithm will be used


     Parallelization info
     --------------------
     sticks:   dense  smooth     PW     G-vecs:    dense   smooth      PW
     Min        1262     467    126                82288    18551    2609
     Max        1263     468    128                82290    18554    2610
     Sum       20195    7485   2029              1316619   296831   41755



     bravais-lattice index     =            0
     lattice parameter (alat)  =      19.9928  a.u.
     unit-cell volume          =    2196.3637 (a.u.)^3
     number of atoms/cell      =           25
     number of atomic types    =            4
     number of electrons       =       189.00
     number of Kohn-Sham states=          114
     kinetic-energy cutoff     =     100.0000  Ry
     charge density cutoff     =    1080.0000  Ry
     scf convergence threshold =      2.0E-10
     mixing beta               =       0.4000
     number of iterations used =            8  plain     mixing
     Exchange-correlation= PBE
                           (   1   4   3   4   0   0   0)

     celldm(1)=  19.992808  celldm(2)=   0.000000  celldm(3)=   0.000000
     celldm(4)=   0.000000  celldm(5)=   0.000000  celldm(6)=   0.000000

     crystal axes: (cart. coord. in units of alat)
               a(1) = (   1.000000   0.000000   0.000000 )  
               a(2) = (   0.000000   0.587793   0.000000 )  
               a(3) = (   0.000000   0.000000   0.467582 )  

     reciprocal axes: (cart. coord. in units 2 pi/alat)
               b(1) = (  1.000000  0.000000  0.000000 )  
               b(2) = (  0.000000  1.701278  0.000000 )  
               b(3) = (  0.000000  0.000000  2.138660 )  


     PseudoPot. # 1 for Fe read from file:
     /opt/QEpot/SSSP_precision_pseudos/Fe.pbe-spn-kjpaw_psl.0.2.1.UPF
     MD5 check sum: e86618425769142926afa95317d90200
     Pseudo is Projector augmented-wave + core cor, Zval = 16.0
     Generated using "atomic" code by A. Dal Corso  v.5.0.99 svn rev. 10869
     Shape of augmentation charge: PSQ
     Using radial grid of 1191 points,  6 beta functions with: 
                l(1) =   0
                l(2) =   0
                l(3) =   1
                l(4) =   1
                l(5) =   2
                l(6) =   2
     Q(r) pseudized with 0 coefficients 


     PseudoPot. # 2 for Na read from file:
     /opt/QEpot/SSSP_precision_pseudos/Na_ONCV_PBE-1.0.oncvpsp.upf
     MD5 check sum: 24a298df0a6742ae313db96548fdb2a4
     Pseudo is Norm-conserving, Zval =  9.0
     Generated using ONCVPSP code by D. R. Hamann
     Using radial grid of 1992 points,  4 beta functions with: 
                l(1) =   0
                l(2) =   0
                l(3) =   1
                l(4) =   1

     PseudoPot. # 3 for O  read from file:
     /opt/QEpot/SSSP_precision_pseudos/O.pbe-n-kjpaw_psl.0.1.UPF
     MD5 check sum: 0234752ac141de4415c5fc33072bef88
     Pseudo is Projector augmented-wave + core cor, Zval =  6.0
     Generated using "atomic" code by A. Dal Corso  v.5.0.99 svn rev. 10869
     Shape of augmentation charge: BESSEL
     Using radial grid of 1095 points,  4 beta functions with: 
                l(1) =   0
                l(2) =   0
                l(3) =   1
                l(4) =   1
     Q(r) pseudized with 0 coefficients 


     PseudoPot. # 4 for P  read from file:
     /opt/QEpot/SSSP_precision_pseudos/P.pbe-n-rrkjus_psl.1.0.0.UPF
     MD5 check sum: 8b930f418f0a4573dca56cd030ffe088
     Pseudo is Ultrasoft + core correction, Zval =  5.0
     Generated using "atomic" code by A. Dal Corso  v.5.1
     Using radial grid of 1147 points,  6 beta functions with: 
                l(1) =   0
                l(2) =   0
                l(3) =   1
                l(4) =   1
                l(5) =   2
                l(6) =   2
     Q(r) pseudized with 0 coefficients 


     atomic species   valence    mass     pseudopotential
        Fe            16.00    55.84500     Fe( 1.00)
        Na             9.00    22.98977     Na( 1.00)
        O              6.00    15.99940     O ( 1.00)
        P              5.00    30.97376     P ( 1.00)

     Starting magnetic structure 
     atomic species   magnetization
        Fe           0.312
        Na           0.000
        O            0.000
        P            0.000

     No symmetry found


                                    s                        frac. trans.

      isym =  1     identity                                     

 cryst.   s( 1) = (     1          0          0      )
                  (     0          1          0      )
                  (     0          0          1      )

 cart.    s( 1) = (  1.0000000  0.0000000  0.0000000 )
                  (  0.0000000  1.0000000  0.0000000 )
                  (  0.0000000  0.0000000  1.0000000 )


   Cartesian axes

     site n.     atom                  positions (alat units)
         1           Na  tau(   1) = (   0.5267800   0.0478699   0.2268373  )
         2           Fe  tau(   2) = (   0.2775050   0.4417549   0.4645053  )
         3           Fe  tau(   3) = (   0.2107690   0.1496099   0.2292510  )
         4           Fe  tau(   4) = (   0.7260420   0.1533335   0.0026147  )
         5           Fe  tau(   5) = (   0.7842060   0.4391816   0.2386087  )
         6           P   tau(   6) = (   0.1068460   0.4426925   0.2077885  )
         7           P   tau(   7) = (   0.3892680   0.1521203   0.4416115  )
         8           P   tau(   8) = (   0.8912160   0.1473145   0.2603261  )
         9           P   tau(   9) = (   0.6066990   0.4416709   0.0262202  )
        10           O   tau(  10) = (   0.1320850   0.4440185   0.3513690  )
        11           O   tau(  11) = (   0.3656990   0.1478677   0.1179402  )
        12           O   tau(  12) = (   0.8700850   0.1481304   0.1162452  )
        13           O   tau(  13) = (   0.6284590   0.4458325   0.3493762  )
        14           O   tau(  14) = (   0.4610830   0.4463427   0.0578451  )
        15           O   tau(  15) = (   0.0360890   0.1465998   0.2915166  )
        16           O   tau(  16) = (   0.5370310   0.1504122   0.4164411  )
        17           O   tau(  17) = (   0.9604850   0.4426454   0.1815945  )
        18           O   tau(  18) = (   0.1771920   0.5564328   0.1398525  )
        19           O   tau(  19) = (   0.3254690   0.0369734   0.3696782  )
        20           O   tau(  20) = (   0.8196290   0.2624292   0.3258956  )
        21           O   tau(  21) = (   0.6770690   0.3268625   0.0918472  )
        22           O   tau(  22) = (   0.8166330   0.0347739   0.3255964  )
        23           O   tau(  23) = (   0.6775470   0.5558732   0.0945283  )
        24           O   tau(  24) = (   0.1757850   0.3272886   0.1412576  )
        25           O   tau(  25) = (   0.3204000   0.2665043   0.3760691  )

   Crystallographic axes

     site n.     atom                  positions (cryst. coord.)
         1           Na  tau(   1) = (  0.5267800  0.0814400  0.4851280  )
         2           Fe  tau(   2) = (  0.2775050  0.7515480  0.9934190  )
         3           Fe  tau(   3) = (  0.2107690  0.2545280  0.4902900  )
         4           Fe  tau(   4) = (  0.7260420  0.2608630  0.0055920  )
         5           Fe  tau(   5) = (  0.7842060  0.7471700  0.5103030  )
         6           P   tau(   6) = (  0.1068460  0.7531430  0.4443890  )
         7           P   tau(   7) = (  0.3892680  0.2587990  0.9444570  )
         8           P   tau(   8) = (  0.8912160  0.2506230  0.5567490  )
         9           P   tau(   9) = (  0.6066990  0.7514050  0.0560760  )
        10           O   tau(  10) = (  0.1320850  0.7553990  0.7514590  )
        11           O   tau(  11) = (  0.3656990  0.2515640  0.2522340  )
        12           O   tau(  12) = (  0.8700850  0.2520110  0.2486090  )
        13           O   tau(  13) = (  0.6284590  0.7584850  0.7471970  )
        14           O   tau(  14) = (  0.4610830  0.7593530  0.1237110  )
        15           O   tau(  15) = (  0.0360890  0.2494070  0.6234550  )
        16           O   tau(  16) = (  0.5370310  0.2558930  0.8906260  )
        17           O   tau(  17) = (  0.9604850  0.7530630  0.3883690  )
        18           O   tau(  18) = (  0.1771920  0.9466470  0.2990970  )
        19           O   tau(  19) = (  0.3254690  0.0629020  0.7906160  )
        20           O   tau(  20) = (  0.8196290  0.4464650  0.6969800  )
        21           O   tau(  21) = (  0.6770690  0.5560840  0.1964300  )
        22           O   tau(  22) = (  0.8166330  0.0591600  0.6963400  )
        23           O   tau(  23) = (  0.6775470  0.9456950  0.2021640  )
        24           O   tau(  24) = (  0.1757850  0.5568090  0.3021020  )
        25           O   tau(  25) = (  0.3204000  0.4533980  0.8042840  )

     number of k points=   158  Marzari-Vanderbilt smearing, width (Ry)=  0.0073
                       cart. coord. in units 2pi/alat
        k(    1) = (   0.0000000   0.0000000   0.0000000), wk =   0.0031746
        k(    2) = (   0.0000000   0.0000000   0.2376289), wk =   0.0063492
        k(    3) = (   0.0000000   0.0000000   0.4752578), wk =   0.0063492
        k(    4) = (   0.0000000   0.0000000   0.7128867), wk =   0.0063492
        k(    5) = (   0.0000000   0.0000000   0.9505157), wk =   0.0063492
        k(    6) = (   0.0000000   0.2430397   0.0000000), wk =   0.0063492
        k(    7) = (   0.0000000   0.2430397   0.2376289), wk =   0.0063492
        k(    8) = (   0.0000000   0.2430397   0.4752578), wk =   0.0063492
        k(    9) = (   0.0000000   0.2430397   0.7128867), wk =   0.0063492
        k(   10) = (   0.0000000   0.2430397   0.9505157), wk =   0.0063492
        k(   11) = (   0.0000000   0.4860795   0.0000000), wk =   0.0063492
        k(   12) = (   0.0000000   0.4860795   0.2376289), wk =   0.0063492
        k(   13) = (   0.0000000   0.4860795   0.4752578), wk =   0.0063492
        k(   14) = (   0.0000000   0.4860795   0.7128867), wk =   0.0063492
        k(   15) = (   0.0000000   0.4860795   0.9505157), wk =   0.0063492
        k(   16) = (   0.0000000   0.7291192   0.0000000), wk =   0.0063492
        k(   17) = (   0.0000000   0.7291192   0.2376289), wk =   0.0063492
        k(   18) = (   0.0000000   0.7291192   0.4752578), wk =   0.0063492
        k(   19) = (   0.0000000   0.7291192   0.7128867), wk =   0.0063492
        k(   20) = (   0.0000000   0.7291192   0.9505157), wk =   0.0063492
        k(   21) = (   0.2000000   0.0000000   0.0000000), wk =   0.0063492
        k(   22) = (   0.2000000   0.0000000   0.2376289), wk =   0.0063492
        k(   23) = (   0.2000000   0.0000000   0.4752578), wk =   0.0063492
        k(   24) = (   0.2000000   0.0000000   0.7128867), wk =   0.0063492
        k(   25) = (   0.2000000   0.0000000   0.9505157), wk =   0.0063492
        k(   26) = (   0.2000000   0.2430397   0.0000000), wk =   0.0063492
        k(   27) = (   0.2000000   0.2430397   0.2376289), wk =   0.0063492
        k(   28) = (   0.2000000   0.2430397   0.4752578), wk =   0.0063492
        k(   29) = (   0.2000000   0.2430397   0.7128867), wk =   0.0063492
        k(   30) = (   0.2000000   0.2430397   0.9505157), wk =   0.0063492
        k(   31) = (   0.2000000   0.4860795   0.0000000), wk =   0.0063492
        k(   32) = (   0.2000000   0.4860795   0.2376289), wk =   0.0063492
        k(   33) = (   0.2000000   0.4860795   0.4752578), wk =   0.0063492
        k(   34) = (   0.2000000   0.4860795   0.7128867), wk =   0.0063492
        k(   35) = (   0.2000000   0.4860795   0.9505157), wk =   0.0063492
        k(   36) = (   0.2000000   0.7291192   0.0000000), wk =   0.0063492
        k(   37) = (   0.2000000   0.7291192   0.2376289), wk =   0.0063492
        k(   38) = (   0.2000000   0.7291192   0.4752578), wk =   0.0063492
        k(   39) = (   0.2000000   0.7291192   0.7128867), wk =   0.0063492
        k(   40) = (   0.2000000   0.7291192   0.9505157), wk =   0.0063492
        k(   41) = (   0.4000000   0.0000000   0.0000000), wk =   0.0063492
        k(   42) = (   0.4000000   0.0000000   0.2376289), wk =   0.0063492
        k(   43) = (   0.4000000   0.0000000   0.4752578), wk =   0.0063492
        k(   44) = (   0.4000000   0.0000000   0.7128867), wk =   0.0063492
        k(   45) = (   0.4000000   0.0000000   0.9505157), wk =   0.0063492
        k(   46) = (   0.4000000   0.2430397   0.0000000), wk =   0.0063492
        k(   47) = (   0.4000000   0.2430397   0.2376289), wk =   0.0063492
        k(   48) = (   0.4000000   0.2430397   0.4752578), wk =   0.0063492
        k(   49) = (   0.4000000   0.2430397   0.7128867), wk =   0.0063492
        k(   50) = (   0.4000000   0.2430397   0.9505157), wk =   0.0063492
        k(   51) = (   0.4000000   0.4860795   0.0000000), wk =   0.0063492
        k(   52) = (   0.4000000   0.4860795   0.2376289), wk =   0.0063492
        k(   53) = (   0.4000000   0.4860795   0.4752578), wk =   0.0063492
        k(   54) = (   0.4000000   0.4860795   0.7128867), wk =   0.0063492
        k(   55) = (   0.4000000   0.4860795   0.9505157), wk =   0.0063492
        k(   56) = (   0.4000000   0.7291192   0.0000000), wk =   0.0063492
        k(   57) = (   0.4000000   0.7291192   0.2376289), wk =   0.0063492
        k(   58) = (   0.4000000   0.7291192   0.4752578), wk =   0.0063492
        k(   59) = (   0.4000000   0.7291192   0.7128867), wk =   0.0063492
        k(   60) = (   0.4000000   0.7291192   0.9505157), wk =   0.0063492
        k(   61) = (   0.0000000  -0.2430397   0.2376289), wk =   0.0063492
        k(   62) = (   0.0000000  -0.2430397   0.4752578), wk =   0.0063492
        k(   63) = (   0.0000000  -0.2430397   0.7128867), wk =   0.0063492
        k(   64) = (   0.0000000  -0.2430397   0.9505157), wk =   0.0063492
        k(   65) = (   0.0000000  -0.4860795   0.2376289), wk =   0.0063492
        k(   66) = (   0.0000000  -0.4860795   0.4752578), wk =   0.0063492
        k(   67) = (   0.0000000  -0.4860795   0.7128867), wk =   0.0063492
        k(   68) = (   0.0000000  -0.4860795   0.9505157), wk =   0.0063492
        k(   69) = (   0.0000000  -0.7291192   0.2376289), wk =   0.0063492
        k(   70) = (   0.0000000  -0.7291192   0.4752578), wk =   0.0063492
        k(   71) = (   0.0000000  -0.7291192   0.7128867), wk =   0.0063492
        k(   72) = (   0.0000000  -0.7291192   0.9505157), wk =   0.0063492
        k(   73) = (  -0.2000000   0.0000000   0.2376289), wk =   0.0063492
        k(   74) = (  -0.2000000   0.0000000   0.4752578), wk =   0.0063492
        k(   75) = (  -0.2000000   0.0000000   0.7128867), wk =   0.0063492
        k(   76) = (  -0.2000000   0.0000000   0.9505157), wk =   0.0063492
        k(   77) = (  -0.2000000   0.2430397   0.0000000), wk =   0.0063492
        k(   78) = (  -0.2000000  -0.2430397   0.2376289), wk =   0.0063492
        k(   79) = (  -0.2000000   0.2430397  -0.2376289), wk =   0.0063492
        k(   80) = (   0.2000000  -0.2430397  -0.2376289), wk =   0.0063492
        k(   81) = (  -0.2000000  -0.2430397   0.4752578), wk =   0.0063492
        k(   82) = (  -0.2000000   0.2430397  -0.4752578), wk =   0.0063492
        k(   83) = (   0.2000000  -0.2430397  -0.4752578), wk =   0.0063492
        k(   84) = (  -0.2000000  -0.2430397   0.7128867), wk =   0.0063492
        k(   85) = (  -0.2000000   0.2430397  -0.7128867), wk =   0.0063492
        k(   86) = (   0.2000000  -0.2430397  -0.7128867), wk =   0.0063492
        k(   87) = (  -0.2000000  -0.2430397   0.9505157), wk =   0.0063492
        k(   88) = (  -0.2000000   0.2430397  -0.9505157), wk =   0.0063492
        k(   89) = (   0.2000000  -0.2430397  -0.9505157), wk =   0.0063492
        k(   90) = (  -0.2000000   0.4860795   0.0000000), wk =   0.0063492
        k(   91) = (  -0.2000000  -0.4860795   0.2376289), wk =   0.0063492
        k(   92) = (  -0.2000000   0.4860795  -0.2376289), wk =   0.0063492
        k(   93) = (   0.2000000  -0.4860795  -0.2376289), wk =   0.0063492
        k(   94) = (  -0.2000000  -0.4860795   0.4752578), wk =   0.0063492
        k(   95) = (  -0.2000000   0.4860795  -0.4752578), wk =   0.0063492
        k(   96) = (   0.2000000  -0.4860795  -0.4752578), wk =   0.0063492
        k(   97) = (  -0.2000000  -0.4860795   0.7128867), wk =   0.0063492
        k(   98) = (  -0.2000000   0.4860795  -0.7128867), wk =   0.0063492
        k(   99) = (   0.2000000  -0.4860795  -0.7128867), wk =   0.0063492
        k(  100) = (  -0.2000000  -0.4860795   0.9505157), wk =   0.0063492
        k(  101) = (  -0.2000000   0.4860795  -0.9505157), wk =   0.0063492
        k(  102) = (   0.2000000  -0.4860795  -0.9505157), wk =   0.0063492
        k(  103) = (  -0.2000000   0.7291192   0.0000000), wk =   0.0063492
        k(  104) = (  -0.2000000  -0.7291192   0.2376289), wk =   0.0063492
        k(  105) = (  -0.2000000   0.7291192  -0.2376289), wk =   0.0063492
        k(  106) = (   0.2000000  -0.7291192  -0.2376289), wk =   0.0063492
        k(  107) = (  -0.2000000  -0.7291192   0.4752578), wk =   0.0063492
        k(  108) = (  -0.2000000   0.7291192  -0.4752578), wk =   0.0063492
        k(  109) = (   0.2000000  -0.7291192  -0.4752578), wk =   0.0063492
        k(  110) = (  -0.2000000  -0.7291192   0.7128867), wk =   0.0063492
        k(  111) = (  -0.2000000   0.7291192  -0.7128867), wk =   0.0063492
        k(  112) = (   0.2000000  -0.7291192  -0.7128867), wk =   0.0063492
        k(  113) = (  -0.2000000  -0.7291192   0.9505157), wk =   0.0063492
        k(  114) = (  -0.2000000   0.7291192  -0.9505157), wk =   0.0063492
        k(  115) = (   0.2000000  -0.7291192  -0.9505157), wk =   0.0063492
        k(  116) = (  -0.4000000   0.0000000   0.2376289), wk =   0.0063492
        k(  117) = (  -0.4000000   0.0000000   0.4752578), wk =   0.0063492
        k(  118) = (  -0.4000000   0.0000000   0.7128867), wk =   0.0063492
        k(  119) = (  -0.4000000   0.0000000   0.9505157), wk =   0.0063492
        k(  120) = (  -0.4000000   0.2430397   0.0000000), wk =   0.0063492
        k(  121) = (  -0.4000000  -0.2430397   0.2376289), wk =   0.0063492
        k(  122) = (  -0.4000000   0.2430397  -0.2376289), wk =   0.0063492
        k(  123) = (   0.4000000  -0.2430397  -0.2376289), wk =   0.0063492
        k(  124) = (  -0.4000000  -0.2430397   0.4752578), wk =   0.0063492
        k(  125) = (  -0.4000000   0.2430397  -0.4752578), wk =   0.0063492
        k(  126) = (   0.4000000  -0.2430397  -0.4752578), wk =   0.0063492
        k(  127) = (  -0.4000000  -0.2430397   0.7128867), wk =   0.0063492
        k(  128) = (  -0.4000000   0.2430397  -0.7128867), wk =   0.0063492
        k(  129) = (   0.4000000  -0.2430397  -0.7128867), wk =   0.0063492
        k(  130) = (  -0.4000000  -0.2430397   0.9505157), wk =   0.0063492
        k(  131) = (  -0.4000000   0.2430397  -0.9505157), wk =   0.0063492
        k(  132) = (   0.4000000  -0.2430397  -0.9505157), wk =   0.0063492
        k(  133) = (  -0.4000000   0.4860795   0.0000000), wk =   0.0063492
        k(  134) = (  -0.4000000  -0.4860795   0.2376289), wk =   0.0063492
        k(  135) = (  -0.4000000   0.4860795  -0.2376289), wk =   0.0063492
        k(  136) = (   0.4000000  -0.4860795  -0.2376289), wk =   0.0063492
        k(  137) = (  -0.4000000  -0.4860795   0.4752578), wk =   0.0063492
        k(  138) = (  -0.4000000   0.4860795  -0.4752578), wk =   0.0063492
        k(  139) = (   0.4000000  -0.4860795  -0.4752578), wk =   0.0063492
        k(  140) = (  -0.4000000  -0.4860795   0.7128867), wk =   0.0063492
        k(  141) = (  -0.4000000   0.4860795  -0.7128867), wk =   0.0063492
        k(  142) = (   0.4000000  -0.4860795  -0.7128867), wk =   0.0063492
        k(  143) = (  -0.4000000  -0.4860795   0.9505157), wk =   0.0063492
        k(  144) = (  -0.4000000   0.4860795  -0.9505157), wk =   0.0063492
        k(  145) = (   0.4000000  -0.4860795  -0.9505157), wk =   0.0063492
        k(  146) = (  -0.4000000   0.7291192   0.0000000), wk =   0.0063492
        k(  147) = (  -0.4000000  -0.7291192   0.2376289), wk =   0.0063492
        k(  148) = (  -0.4000000   0.7291192  -0.2376289), wk =   0.0063492
        k(  149) = (   0.4000000  -0.7291192  -0.2376289), wk =   0.0063492
        k(  150) = (  -0.4000000  -0.7291192   0.4752578), wk =   0.0063492
        k(  151) = (  -0.4000000   0.7291192  -0.4752578), wk =   0.0063492
        k(  152) = (   0.4000000  -0.7291192  -0.4752578), wk =   0.0063492
        k(  153) = (  -0.4000000  -0.7291192   0.7128867), wk =   0.0063492
        k(  154) = (  -0.4000000   0.7291192  -0.7128867), wk =   0.0063492
        k(  155) = (   0.4000000  -0.7291192  -0.7128867), wk =   0.0063492
        k(  156) = (  -0.4000000  -0.7291192   0.9505157), wk =   0.0063492
        k(  157) = (  -0.4000000   0.7291192  -0.9505157), wk =   0.0063492
        k(  158) = (   0.4000000  -0.7291192  -0.9505157), wk =   0.0063492

                       cryst. coord.
        k(    1) = (   0.0000000   0.0000000   0.0000000), wk =   0.0031746
        k(    2) = (   0.0000000   0.0000000   0.1111111), wk =   0.0063492
        k(    3) = (   0.0000000   0.0000000   0.2222222), wk =   0.0063492
        k(    4) = (   0.0000000   0.0000000   0.3333333), wk =   0.0063492
        k(    5) = (   0.0000000   0.0000000   0.4444444), wk =   0.0063492
        k(    6) = (   0.0000000   0.1428571   0.0000000), wk =   0.0063492
        k(    7) = (   0.0000000   0.1428571   0.1111111), wk =   0.0063492
        k(    8) = (   0.0000000   0.1428571   0.2222222), wk =   0.0063492
        k(    9) = (   0.0000000   0.1428571   0.3333333), wk =   0.0063492
        k(   10) = (   0.0000000   0.1428571   0.4444444), wk =   0.0063492
        k(   11) = (   0.0000000   0.2857143   0.0000000), wk =   0.0063492
        k(   12) = (   0.0000000   0.2857143   0.1111111), wk =   0.0063492
        k(   13) = (   0.0000000   0.2857143   0.2222222), wk =   0.0063492
        k(   14) = (   0.0000000   0.2857143   0.3333333), wk =   0.0063492
        k(   15) = (   0.0000000   0.2857143   0.4444444), wk =   0.0063492
        k(   16) = (   0.0000000   0.4285714   0.0000000), wk =   0.0063492
        k(   17) = (   0.0000000   0.4285714   0.1111111), wk =   0.0063492
        k(   18) = (   0.0000000   0.4285714   0.2222222), wk =   0.0063492
        k(   19) = (   0.0000000   0.4285714   0.3333333), wk =   0.0063492
        k(   20) = (   0.0000000   0.4285714   0.4444444), wk =   0.0063492
        k(   21) = (   0.2000000   0.0000000   0.0000000), wk =   0.0063492
        k(   22) = (   0.2000000   0.0000000   0.1111111), wk =   0.0063492
        k(   23) = (   0.2000000   0.0000000   0.2222222), wk =   0.0063492
        k(   24) = (   0.2000000   0.0000000   0.3333333), wk =   0.0063492
        k(   25) = (   0.2000000   0.0000000   0.4444444), wk =   0.0063492
        k(   26) = (   0.2000000   0.1428571   0.0000000), wk =   0.0063492
        k(   27) = (   0.2000000   0.1428571   0.1111111), wk =   0.0063492
        k(   28) = (   0.2000000   0.1428571   0.2222222), wk =   0.0063492
        k(   29) = (   0.2000000   0.1428571   0.3333333), wk =   0.0063492
        k(   30) = (   0.2000000   0.1428571   0.4444444), wk =   0.0063492
        k(   31) = (   0.2000000   0.2857143   0.0000000), wk =   0.0063492
        k(   32) = (   0.2000000   0.2857143   0.1111111), wk =   0.0063492
        k(   33) = (   0.2000000   0.2857143   0.2222222), wk =   0.0063492
        k(   34) = (   0.2000000   0.2857143   0.3333333), wk =   0.0063492
        k(   35) = (   0.2000000   0.2857143   0.4444444), wk =   0.0063492
        k(   36) = (   0.2000000   0.4285714   0.0000000), wk =   0.0063492
        k(   37) = (   0.2000000   0.4285714   0.1111111), wk =   0.0063492
        k(   38) = (   0.2000000   0.4285714   0.2222222), wk =   0.0063492
        k(   39) = (   0.2000000   0.4285714   0.3333333), wk =   0.0063492
        k(   40) = (   0.2000000   0.4285714   0.4444444), wk =   0.0063492
        k(   41) = (   0.4000000   0.0000000   0.0000000), wk =   0.0063492
        k(   42) = (   0.4000000   0.0000000   0.1111111), wk =   0.0063492
        k(   43) = (   0.4000000   0.0000000   0.2222222), wk =   0.0063492
        k(   44) = (   0.4000000   0.0000000   0.3333333), wk =   0.0063492
        k(   45) = (   0.4000000   0.0000000   0.4444444), wk =   0.0063492
        k(   46) = (   0.4000000   0.1428571   0.0000000), wk =   0.0063492
        k(   47) = (   0.4000000   0.1428571   0.1111111), wk =   0.0063492
        k(   48) = (   0.4000000   0.1428571   0.2222222), wk =   0.0063492
        k(   49) = (   0.4000000   0.1428571   0.3333333), wk =   0.0063492
        k(   50) = (   0.4000000   0.1428571   0.4444444), wk =   0.0063492
        k(   51) = (   0.4000000   0.2857143   0.0000000), wk =   0.0063492
        k(   52) = (   0.4000000   0.2857143   0.1111111), wk =   0.0063492
        k(   53) = (   0.4000000   0.2857143   0.2222222), wk =   0.0063492
        k(   54) = (   0.4000000   0.2857143   0.3333333), wk =   0.0063492
        k(   55) = (   0.4000000   0.2857143   0.4444444), wk =   0.0063492
        k(   56) = (   0.4000000   0.4285714   0.0000000), wk =   0.0063492
        k(   57) = (   0.4000000   0.4285714   0.1111111), wk =   0.0063492
        k(   58) = (   0.4000000   0.4285714   0.2222222), wk =   0.0063492
        k(   59) = (   0.4000000   0.4285714   0.3333333), wk =   0.0063492
        k(   60) = (   0.4000000   0.4285714   0.4444444), wk =   0.0063492
        k(   61) = (   0.0000000  -0.1428571   0.1111111), wk =   0.0063492
        k(   62) = (   0.0000000  -0.1428571   0.2222222), wk =   0.0063492
        k(   63) = (   0.0000000  -0.1428571   0.3333333), wk =   0.0063492
        k(   64) = (   0.0000000  -0.1428571   0.4444444), wk =   0.0063492
        k(   65) = (   0.0000000  -0.2857143   0.1111111), wk =   0.0063492
        k(   66) = (   0.0000000  -0.2857143   0.2222222), wk =   0.0063492
        k(   67) = (   0.0000000  -0.2857143   0.3333333), wk =   0.0063492
        k(   68) = (   0.0000000  -0.2857143   0.4444444), wk =   0.0063492
        k(   69) = (   0.0000000  -0.4285714   0.1111111), wk =   0.0063492
        k(   70) = (   0.0000000  -0.4285714   0.2222222), wk =   0.0063492
        k(   71) = (   0.0000000  -0.4285714   0.3333333), wk =   0.0063492
        k(   72) = (   0.0000000  -0.4285714   0.4444444), wk =   0.0063492
        k(   73) = (  -0.2000000   0.0000000   0.1111111), wk =   0.0063492
        k(   74) = (  -0.2000000   0.0000000   0.2222222), wk =   0.0063492
        k(   75) = (  -0.2000000   0.0000000   0.3333333), wk =   0.0063492
        k(   76) = (  -0.2000000   0.0000000   0.4444444), wk =   0.0063492
        k(   77) = (  -0.2000000   0.1428571   0.0000000), wk =   0.0063492
        k(   78) = (  -0.2000000  -0.1428571   0.1111111), wk =   0.0063492
        k(   79) = (  -0.2000000   0.1428571  -0.1111111), wk =   0.0063492
        k(   80) = (   0.2000000  -0.1428571  -0.1111111), wk =   0.0063492
        k(   81) = (  -0.2000000  -0.1428571   0.2222222), wk =   0.0063492
        k(   82) = (  -0.2000000   0.1428571  -0.2222222), wk =   0.0063492
        k(   83) = (   0.2000000  -0.1428571  -0.2222222), wk =   0.0063492
        k(   84) = (  -0.2000000  -0.1428571   0.3333333), wk =   0.0063492
        k(   85) = (  -0.2000000   0.1428571  -0.3333333), wk =   0.0063492
        k(   86) = (   0.2000000  -0.1428571  -0.3333333), wk =   0.0063492
        k(   87) = (  -0.2000000  -0.1428571   0.4444444), wk =   0.0063492
        k(   88) = (  -0.2000000   0.1428571  -0.4444444), wk =   0.0063492
        k(   89) = (   0.2000000  -0.1428571  -0.4444444), wk =   0.0063492
        k(   90) = (  -0.2000000   0.2857143   0.0000000), wk =   0.0063492
        k(   91) = (  -0.2000000  -0.2857143   0.1111111), wk =   0.0063492
        k(   92) = (  -0.2000000   0.2857143  -0.1111111), wk =   0.0063492
        k(   93) = (   0.2000000  -0.2857143  -0.1111111), wk =   0.0063492
        k(   94) = (  -0.2000000  -0.2857143   0.2222222), wk =   0.0063492
        k(   95) = (  -0.2000000   0.2857143  -0.2222222), wk =   0.0063492
        k(   96) = (   0.2000000  -0.2857143  -0.2222222), wk =   0.0063492
        k(   97) = (  -0.2000000  -0.2857143   0.3333333), wk =   0.0063492
        k(   98) = (  -0.2000000   0.2857143  -0.3333333), wk =   0.0063492
        k(   99) = (   0.2000000  -0.2857143  -0.3333333), wk =   0.0063492
        k(  100) = (  -0.2000000  -0.2857143   0.4444444), wk =   0.0063492
        k(  101) = (  -0.2000000   0.2857143  -0.4444444), wk =   0.0063492
        k(  102) = (   0.2000000  -0.2857143  -0.4444444), wk =   0.0063492
        k(  103) = (  -0.2000000   0.4285714   0.0000000), wk =   0.0063492
        k(  104) = (  -0.2000000  -0.4285714   0.1111111), wk =   0.0063492
        k(  105) = (  -0.2000000   0.4285714  -0.1111111), wk =   0.0063492
        k(  106) = (   0.2000000  -0.4285714  -0.1111111), wk =   0.0063492
        k(  107) = (  -0.2000000  -0.4285714   0.2222222), wk =   0.0063492
        k(  108) = (  -0.2000000   0.4285714  -0.2222222), wk =   0.0063492
        k(  109) = (   0.2000000  -0.4285714  -0.2222222), wk =   0.0063492
        k(  110) = (  -0.2000000  -0.4285714   0.3333333), wk =   0.0063492
        k(  111) = (  -0.2000000   0.4285714  -0.3333333), wk =   0.0063492
        k(  112) = (   0.2000000  -0.4285714  -0.3333333), wk =   0.0063492
        k(  113) = (  -0.2000000  -0.4285714   0.4444444), wk =   0.0063492
        k(  114) = (  -0.2000000   0.4285714  -0.4444444), wk =   0.0063492
        k(  115) = (   0.2000000  -0.4285714  -0.4444444), wk =   0.0063492
        k(  116) = (  -0.4000000   0.0000000   0.1111111), wk =   0.0063492
        k(  117) = (  -0.4000000   0.0000000   0.2222222), wk =   0.0063492
        k(  118) = (  -0.4000000   0.0000000   0.3333333), wk =   0.0063492
        k(  119) = (  -0.4000000   0.0000000   0.4444444), wk =   0.0063492
        k(  120) = (  -0.4000000   0.1428571   0.0000000), wk =   0.0063492
        k(  121) = (  -0.4000000  -0.1428571   0.1111111), wk =   0.0063492
        k(  122) = (  -0.4000000   0.1428571  -0.1111111), wk =   0.0063492
        k(  123) = (   0.4000000  -0.1428571  -0.1111111), wk =   0.0063492
        k(  124) = (  -0.4000000  -0.1428571   0.2222222), wk =   0.0063492
        k(  125) = (  -0.4000000   0.1428571  -0.2222222), wk =   0.0063492
        k(  126) = (   0.4000000  -0.1428571  -0.2222222), wk =   0.0063492
        k(  127) = (  -0.4000000  -0.1428571   0.3333333), wk =   0.0063492
        k(  128) = (  -0.4000000   0.1428571  -0.3333333), wk =   0.0063492
        k(  129) = (   0.4000000  -0.1428571  -0.3333333), wk =   0.0063492
        k(  130) = (  -0.4000000  -0.1428571   0.4444444), wk =   0.0063492
        k(  131) = (  -0.4000000   0.1428571  -0.4444444), wk =   0.0063492
        k(  132) = (   0.4000000  -0.1428571  -0.4444444), wk =   0.0063492
        k(  133) = (  -0.4000000   0.2857143   0.0000000), wk =   0.0063492
        k(  134) = (  -0.4000000  -0.2857143   0.1111111), wk =   0.0063492
        k(  135) = (  -0.4000000   0.2857143  -0.1111111), wk =   0.0063492
        k(  136) = (   0.4000000  -0.2857143  -0.1111111), wk =   0.0063492
        k(  137) = (  -0.4000000  -0.2857143   0.2222222), wk =   0.0063492
        k(  138) = (  -0.4000000   0.2857143  -0.2222222), wk =   0.0063492
        k(  139) = (   0.4000000  -0.2857143  -0.2222222), wk =   0.0063492
        k(  140) = (  -0.4000000  -0.2857143   0.3333333), wk =   0.0063492
        k(  141) = (  -0.4000000   0.2857143  -0.3333333), wk =   0.0063492
        k(  142) = (   0.4000000  -0.2857143  -0.3333333), wk =   0.0063492
        k(  143) = (  -0.4000000  -0.2857143   0.4444444), wk =   0.0063492
        k(  144) = (  -0.4000000   0.2857143  -0.4444444), wk =   0.0063492
        k(  145) = (   0.4000000  -0.2857143  -0.4444444), wk =   0.0063492
        k(  146) = (  -0.4000000   0.4285714   0.0000000), wk =   0.0063492
        k(  147) = (  -0.4000000  -0.4285714   0.1111111), wk =   0.0063492
        k(  148) = (  -0.4000000   0.4285714  -0.1111111), wk =   0.0063492
        k(  149) = (   0.4000000  -0.4285714  -0.1111111), wk =   0.0063492
        k(  150) = (  -0.4000000  -0.4285714   0.2222222), wk =   0.0063492
        k(  151) = (  -0.4000000   0.4285714  -0.2222222), wk =   0.0063492
        k(  152) = (   0.4000000  -0.4285714  -0.2222222), wk =   0.0063492
        k(  153) = (  -0.4000000  -0.4285714   0.3333333), wk =   0.0063492
        k(  154) = (  -0.4000000   0.4285714  -0.3333333), wk =   0.0063492
        k(  155) = (   0.4000000  -0.4285714  -0.3333333), wk =   0.0063492
        k(  156) = (  -0.4000000  -0.4285714   0.4444444), wk =   0.0063492
        k(  157) = (  -0.4000000   0.4285714  -0.4444444), wk =   0.0063492
        k(  158) = (   0.4000000  -0.4285714  -0.4444444), wk =   0.0063492

     Dense  grid:  1316619 G-vectors     FFT dimensions: ( 216, 125, 100)

     Smooth grid:   296831 G-vectors     FFT dimensions: ( 128,  75,  60)

     Dynamical RAM for                 wfc:       4.03 MB

     Dynamical RAM for     wfc (w. buffer):    1278.20 MB

     Dynamical RAM for           str. fact:       5.02 MB

     Dynamical RAM for           local pot:       0.00 MB

     Dynamical RAM for          nlocal pot:       9.90 MB

     Dynamical RAM for                qrad:      10.54 MB

     Dynamical RAM for          rho,v,vnew:      16.19 MB

     Dynamical RAM for               rhoin:       5.40 MB

     Dynamical RAM for            rho*nmix:      40.18 MB

     Dynamical RAM for           G-vectors:       4.85 MB

     Dynamical RAM for          h,s,v(r/c):       2.38 MB

     Dynamical RAM for          <psi|beta>:       0.49 MB

     Dynamical RAM for                 psi:       8.06 MB

     Dynamical RAM for                hpsi:       8.06 MB

     Dynamical RAM for                spsi:       8.06 MB

     Dynamical RAM for      wfcinit/wfcrot:      10.12 MB

     Dynamical RAM for           addusdens:     254.90 MB

     Dynamical RAM for          addusforce:     292.69 MB

     Dynamical RAM for         addusstress:     254.27 MB

     Estimated static dynamical RAM per process >       1.35 GB

     Estimated max dynamical RAM per process >       1.64 GB

     Estimated total dynamical RAM >      26.22 GB

     Check: negative core charge=   -0.000003
     Generating pointlists ...
     new r_m :   0.0757 (alat units)  1.5137 (a.u.) for type    1
     new r_m :   0.0890 (alat units)  1.7797 (a.u.) for type    2
     new r_m :   0.0601 (alat units)  1.2010 (a.u.) for type    3
     new r_m :   0.0601 (alat units)  1.2010 (a.u.) for type    4

     Initial potential from superposition of free atoms

     starting charge  188.99132, renormalised to  189.00000
     Starting wfcs are  137 randomized atomic wfcs
     Checking if some PAW data can be deallocated... 
       PAW data deallocated on   13 nodes for type:  1
       PAW data deallocated on    4 nodes for type:  3

     total cpu time spent up to now is      192.0 secs

     Self-consistent Calculation

     iteration #  1     ecut=   100.00 Ry     beta= 0.40
     Davidson diagonalization with overlap
     ethr =  1.00E-02,  avg # of iterations =  3.0

     negative rho (up, down):  0.000E+00 9.150E-05

     total cpu time spent up to now is      728.4 secs

     total energy              =   -2123.92301140 Ry
     estimated scf accuracy    <       6.91065352 Ry

     total magnetization       =    19.00 Bohr mag/cell
     absolute magnetization    =    19.00 Bohr mag/cell

     iteration #  2     ecut=   100.00 Ry     beta= 0.40
     Davidson diagonalization with overlap
     ethr =  3.66E-03,  avg # of iterations =  2.0

     negative rho (up, down):  0.000E+00 2.582E-05

     total cpu time spent up to now is     1246.4 secs

     total energy              =   -2120.91535760 Ry
     estimated scf accuracy    <      40.18453549 Ry

     total magnetization       =     8.11 Bohr mag/cell
     absolute magnetization    =     9.58 Bohr mag/cell

     iteration #  3     ecut=   100.00 Ry     beta= 0.40
     Davidson diagonalization with overlap
     ethr =  3.66E-03,  avg # of iterations =  3.3

     negative rho (up, down):  0.000E+00 1.310E-05

     total cpu time spent up to now is     1706.2 secs

     total energy              =   -2123.06670702 Ry
     estimated scf accuracy    <      79.89298672 Ry

     total magnetization       =     1.00 Bohr mag/cell
     absolute magnetization    =     5.15 Bohr mag/cell

     iteration #  4     ecut=   100.00 Ry     beta= 0.40
     Davidson diagonalization with overlap
     ethr =  3.66E-03,  avg # of iterations =  1.5

     negative rho (up, down):  0.000E+00 3.674E-05

     total cpu time spent up to now is     2123.7 secs

     total energy              =   -2125.38291402 Ry
     estimated scf accuracy    <       7.37862250 Ry

     total magnetization       =    15.16 Bohr mag/cell
     absolute magnetization    =    15.27 Bohr mag/cell

     iteration #  5     ecut=   100.00 Ry     beta= 0.40
     Davidson diagonalization with overlap
     ethr =  3.66E-03,  avg # of iterations =  2.0

     negative rho (up, down):  0.000E+00 8.046E-05

     total cpu time spent up to now is     2559.0 secs

     total energy              =   -2125.58672768 Ry
     estimated scf accuracy    <      11.51936057 Ry

     total magnetization       =    14.55 Bohr mag/cell
     absolute magnetization    =    14.73 Bohr mag/cell

     iteration #  6     ecut=   100.00 Ry     beta= 0.40
     Davidson diagonalization with overlap
     ethr =  3.66E-03,  avg # of iterations =  1.2

     negative rho (up, down):  0.000E+00 1.882E-04

     total cpu time spent up to now is     2966.1 secs

     total energy              =   -2126.06268620 Ry
     estimated scf accuracy    <       0.64290778 Ry

     total magnetization       =    19.00 Bohr mag/cell
     absolute magnetization    =    19.00 Bohr mag/cell

     iteration #  7     ecut=   100.00 Ry     beta= 0.40
     Davidson diagonalization with overlap
     ethr =  3.40E-04,  avg # of iterations =  2.5

     negative rho (up, down):  0.000E+00 2.692E-04

     total cpu time spent up to now is     3406.7 secs

     total energy              =   -2126.03058142 Ry
     estimated scf accuracy    <       1.69338338 Ry

     total magnetization       =    18.39 Bohr mag/cell
     absolute magnetization    =    18.39 Bohr mag/cell

     iteration #  8     ecut=   100.00 Ry     beta= 0.40
     Davidson diagonalization with overlap
     ethr =  3.40E-04,  avg # of iterations =  1.0

     negative rho (up, down):  0.000E+00 3.876E-04

     total cpu time spent up to now is     3805.8 secs

     total energy              =   -2126.11006319 Ry
     estimated scf accuracy    <       0.53232591 Ry

     total magnetization       =    19.00 Bohr mag/cell
     absolute magnetization    =    19.00 Bohr mag/cell

     iteration #  9     ecut=   100.00 Ry     beta= 0.40
     Davidson diagonalization with overlap
     ethr =  2.82E-04,  avg # of iterations =  1.0

     negative rho (up, down):  0.000E+00 7.067E-04

     total cpu time spent up to now is     4207.6 secs

     total energy              =   -2126.10693434 Ry
     estimated scf accuracy    <       0.15575956 Ry

     total magnetization       =    19.00 Bohr mag/cell
     absolute magnetization    =    19.00 Bohr mag/cell

     iteration # 10     ecut=   100.00 Ry     beta= 0.40
     Davidson diagonalization with overlap
     c_bands:  1 eigenvalues not converged
     c_bands:  1 eigenvalues not converged
     c_bands:  1 eigenvalues not converged
     c_bands:  1 eigenvalues not converged
     c_bands:  1 eigenvalues not converged
     c_bands:  1 eigenvalues not converged
     c_bands:  1 eigenvalues not converged
     c_bands:  1 eigenvalues not converged
     ethr =  8.24E-05,  avg # of iterations = 12.3

     negative rho (up, down):  0.000E+00 7.319E-04

     total cpu time spent up to now is     4789.5 secs

     total energy              =   -2126.11915966 Ry
     estimated scf accuracy    <       0.08192869 Ry

     total magnetization       =    19.00 Bohr mag/cell
     absolute magnetization    =    19.02 Bohr mag/cell

     iteration # 11     ecut=   100.00 Ry     beta= 0.40
     Davidson diagonalization with overlap
     ethr =  4.33E-05,  avg # of iterations =  2.0

     negative rho (up, down):  0.000E+00 9.317E-04

     total cpu time spent up to now is     5211.2 secs

     total energy              =   -2126.12174748 Ry
     estimated scf accuracy    <       0.03714979 Ry

     total magnetization       =    19.00 Bohr mag/cell
     absolute magnetization    =    19.02 Bohr mag/cell

     iteration # 12     ecut=   100.00 Ry     beta= 0.40
     Davidson diagonalization with overlap
     c_bands:  1 eigenvalues not converged
     c_bands:  1 eigenvalues not converged
     c_bands:  4 eigenvalues not converged
     c_bands:  1 eigenvalues not converged
     c_bands:  1 eigenvalues not converged
     c_bands:  1 eigenvalues not converged
     ethr =  1.97E-05,  avg # of iterations =  3.8

     negative rho (up, down):  0.000E+00 9.445E-04

     total cpu time spent up to now is     5662.7 secs

     total energy              =   -2126.12307395 Ry
     estimated scf accuracy    <       0.01798726 Ry

     total magnetization       =    19.00 Bohr mag/cell
     absolute magnetization    =    19.03 Bohr mag/cell

     iteration # 13     ecut=   100.00 Ry     beta= 0.40
     Davidson diagonalization with overlap
     c_bands:  1 eigenvalues not converged
     c_bands:  1 eigenvalues not converged
     c_bands:  1 eigenvalues not converged
     c_bands:  1 eigenvalues not converged
     c_bands:  1 eigenvalues not converged
     c_bands:  1 eigenvalues not converged
     c_bands:  1 eigenvalues not converged
     c_bands:  1 eigenvalues not converged
     c_bands:  1 eigenvalues not converged
     c_bands:  1 eigenvalues not converged
     c_bands:  1 eigenvalues not converged
     c_bands:  1 eigenvalues not converged
     c_bands:  1 eigenvalues not converged
     c_bands:  1 eigenvalues not converged
     c_bands:  1 eigenvalues not converged
     c_bands:  2 eigenvalues not converged
     c_bands:  1 eigenvalues not converged
     ethr =  9.52E-06,  avg # of iterations =  5.3

     negative rho (up, down):  0.000E+00 9.750E-04

     total cpu time spent up to now is     6134.1 secs

     total energy              =   -2126.12432747 Ry
     estimated scf accuracy    <       0.02054035 Ry

     total magnetization       =    19.00 Bohr mag/cell
     absolute magnetization    =    19.04 Bohr mag/cell

     iteration # 14     ecut=   100.00 Ry     beta= 0.40
     Davidson diagonalization with overlap
     ethr =  9.52E-06,  avg # of iterations =  1.4

     negative rho (up, down):  0.000E+00 9.723E-04

     total cpu time spent up to now is     6544.6 secs

     total energy              =   -2126.12478122 Ry
     estimated scf accuracy    <       0.00249949 Ry

     total magnetization       =    19.00 Bohr mag/cell
     absolute magnetization    =    19.04 Bohr mag/cell

     iteration # 15     ecut=   100.00 Ry     beta= 0.40
     Davidson diagonalization with overlap
     c_bands:  1 eigenvalues not converged
     c_bands:  1 eigenvalues not converged
     c_bands:  1 eigenvalues not converged
     c_bands:  1 eigenvalues not converged
     c_bands:  1 eigenvalues not converged
     c_bands:  1 eigenvalues not converged
     c_bands:  1 eigenvalues not converged
     c_bands:  1 eigenvalues not converged
     c_bands:  1 eigenvalues not converged
     c_bands:  1 eigenvalues not converged
     c_bands:  1 eigenvalues not converged
     c_bands:  1 eigenvalues not converged
     c_bands:  1 eigenvalues not converged
     c_bands:  1 eigenvalues not converged
     c_bands:  1 eigenvalues not converged
     c_bands:  1 eigenvalues not converged
     c_bands:  1 eigenvalues not converged
     c_bands:  1 eigenvalues not converged
     c_bands:  1 eigenvalues not converged
     c_bands:  1 eigenvalues not converged
     c_bands:  2 eigenvalues not converged
     c_bands:  1 eigenvalues not converged
     c_bands:  1 eigenvalues not converged
     c_bands:  2 eigenvalues not converged
     c_bands:  1 eigenvalues not converged
     c_bands:  1 eigenvalues not converged
     c_bands:  2 eigenvalues not converged
     c_bands:  1 eigenvalues not converged
     c_bands:  1 eigenvalues not converged
     c_bands:  2 eigenvalues not converged
     c_bands:  1 eigenvalues not converged
     c_bands:  1 eigenvalues not converged
     c_bands:  1 eigenvalues not converged
     c_bands:  1 eigenvalues not converged
     c_bands:  1 eigenvalues not converged
     c_bands:  2 eigenvalues not converged
     c_bands:  2 eigenvalues not converged
     c_bands:  1 eigenvalues not converged
     c_bands:  1 eigenvalues not converged
     c_bands:  1 eigenvalues not converged
     c_bands:  1 eigenvalues not converged
     c_bands:  1 eigenvalues not converged
     c_bands:  1 eigenvalues not converged
     c_bands:  1 eigenvalues not converged
     c_bands:  1 eigenvalues not converged
     ethr =  1.32E-06,  avg # of iterations = 13.6

     negative rho (up, down):  0.000E+00 9.590E-04

     total cpu time spent up to now is     7231.3 secs

     total energy              =   -2126.12528971 Ry
     estimated scf accuracy    <       0.00147524 Ry

     total magnetization       =    19.00 Bohr mag/cell
     absolute magnetization    =    19.05 Bohr mag/cell

     iteration # 16     ecut=   100.00 Ry     beta= 0.40
     Davidson diagonalization with overlap
     ethr =  7.81E-07,  avg # of iterations =  1.7

     negative rho (up, down):  0.000E+00 9.578E-04

     total cpu time spent up to now is     7650.1 secs

     total energy              =   -2126.12536619 Ry
     estimated scf accuracy    <       0.00088035 Ry

     total magnetization       =    19.00 Bohr mag/cell
     absolute magnetization    =    19.05 Bohr mag/cell

     iteration # 17     ecut=   100.00 Ry     beta= 0.40
     Davidson diagonalization with overlap
     ethr =  4.66E-07,  avg # of iterations =  1.1

     negative rho (up, down):  0.000E+00 9.541E-04

     total cpu time spent up to now is     8051.4 secs

     total energy              =   -2126.12540650 Ry
     estimated scf accuracy    <       0.00027131 Ry

     total magnetization       =    19.00 Bohr mag/cell
     absolute magnetization    =    19.05 Bohr mag/cell

     iteration # 18     ecut=   100.00 Ry     beta= 0.40
     Davidson diagonalization with overlap
     ethr =  1.44E-07,  avg # of iterations =  2.2

     negative rho (up, down):  0.000E+00 9.504E-04

     total cpu time spent up to now is     8487.1 secs

     total energy              =   -2126.12543810 Ry
     estimated scf accuracy    <       0.00004062 Ry

     total magnetization       =    19.00 Bohr mag/cell
     absolute magnetization    =    19.05 Bohr mag/cell

     iteration # 19     ecut=   100.00 Ry     beta= 0.40
     Davidson diagonalization with overlap
     ethr =  2.15E-08,  avg # of iterations =  3.2

     negative rho (up, down):  0.000E+00 9.475E-04

     total cpu time spent up to now is     9036.3 secs

     total energy              =   -2126.12545250 Ry
     estimated scf accuracy    <       0.00002809 Ry

     total magnetization       =    19.00 Bohr mag/cell
     absolute magnetization    =    19.05 Bohr mag/cell

     iteration # 20     ecut=   100.00 Ry     beta= 0.40
     Davidson diagonalization with overlap
     ethr =  1.49E-08,  avg # of iterations =  2.0

     negative rho (up, down):  0.000E+00 9.471E-04

     total cpu time spent up to now is     9472.1 secs

     total energy              =   -2126.12545671 Ry
     estimated scf accuracy    <       0.00002221 Ry

     total magnetization       =    19.00 Bohr mag/cell
     absolute magnetization    =    19.05 Bohr mag/cell

     iteration # 21     ecut=   100.00 Ry     beta= 0.40
     Davidson diagonalization with overlap
     ethr =  1.17E-08,  avg # of iterations =  1.0

     negative rho (up, down):  0.000E+00 9.475E-04

     total cpu time spent up to now is     9870.9 secs

     total energy              =   -2126.12545813 Ry
     estimated scf accuracy    <       0.00000208 Ry

     total magnetization       =    19.00 Bohr mag/cell
     absolute magnetization    =    19.05 Bohr mag/cell

     iteration # 22     ecut=   100.00 Ry     beta= 0.40
     Davidson diagonalization with overlap
     ethr =  1.10E-09,  avg # of iterations =  3.3

     negative rho (up, down):  0.000E+00 9.474E-04

     total cpu time spent up to now is    10382.7 secs

     total energy              =   -2126.12545909 Ry
     estimated scf accuracy    <       0.00000858 Ry

     total magnetization       =    19.00 Bohr mag/cell
     absolute magnetization    =    19.05 Bohr mag/cell

     iteration # 23     ecut=   100.00 Ry     beta= 0.40
     Davidson diagonalization with overlap
     ethr =  1.10E-09,  avg # of iterations =  1.9

     negative rho (up, down):  0.000E+00 9.480E-04

     total cpu time spent up to now is    10814.0 secs

     total energy              =   -2126.12545958 Ry
     estimated scf accuracy    <       0.00000127 Ry

     total magnetization       =    19.00 Bohr mag/cell
     absolute magnetization    =    19.05 Bohr mag/cell

     iteration # 24     ecut=   100.00 Ry     beta= 0.40
     Davidson diagonalization with overlap
     ethr =  6.72E-10,  avg # of iterations =  1.6

     negative rho (up, down):  0.000E+00 9.483E-04

     total cpu time spent up to now is    11232.4 secs

     total energy              =   -2126.12545970 Ry
     estimated scf accuracy    <       0.00000081 Ry

     total magnetization       =    19.00 Bohr mag/cell
     absolute magnetization    =    19.05 Bohr mag/cell

     iteration # 25     ecut=   100.00 Ry     beta= 0.40
     Davidson diagonalization with overlap
     ethr =  4.30E-10,  avg # of iterations =  2.0

     negative rho (up, down):  0.000E+00 9.487E-04

     total cpu time spent up to now is    11664.6 secs

     total energy              =   -2126.12545982 Ry
     estimated scf accuracy    <       0.00000031 Ry

     total magnetization       =    19.00 Bohr mag/cell
     absolute magnetization    =    19.05 Bohr mag/cell

     iteration # 26     ecut=   100.00 Ry     beta= 0.40
     Davidson diagonalization with overlap
     ethr =  1.62E-10,  avg # of iterations =  2.0

     negative rho (up, down):  0.000E+00 9.487E-04

     total cpu time spent up to now is    12092.1 secs

     total energy              =   -2126.12545986 Ry
     estimated scf accuracy    <       0.00000018 Ry

     total magnetization       =    19.00 Bohr mag/cell
     absolute magnetization    =    19.05 Bohr mag/cell

     iteration # 27     ecut=   100.00 Ry     beta= 0.40
     Davidson diagonalization with overlap
     ethr =  9.66E-11,  avg # of iterations =  1.8

     negative rho (up, down):  0.000E+00 9.487E-04

     total cpu time spent up to now is    12516.3 secs

     total energy              =   -2126.12545988 Ry
     estimated scf accuracy    <       0.00000003 Ry

     total magnetization       =    19.00 Bohr mag/cell
     absolute magnetization    =    19.05 Bohr mag/cell

     iteration # 28     ecut=   100.00 Ry     beta= 0.40
     Davidson diagonalization with overlap
     ethr =  1.73E-11,  avg # of iterations =  4.3

     negative rho (up, down):  0.000E+00 9.487E-04

     total cpu time spent up to now is    13076.3 secs

     total energy              =   -2126.12545990 Ry
     estimated scf accuracy    <       0.00000003 Ry

     total magnetization       =    19.00 Bohr mag/cell
     absolute magnetization    =    19.05 Bohr mag/cell

     iteration # 29     ecut=   100.00 Ry     beta= 0.40
     Davidson diagonalization with overlap
     ethr =  1.60E-11,  avg # of iterations =  2.0

     negative rho (up, down):  0.000E+00 9.487E-04

     total cpu time spent up to now is    13510.2 secs

     total energy              =   -2126.12545990 Ry
     estimated scf accuracy    <          5.7E-09 Ry

     total magnetization       =    19.00 Bohr mag/cell
     absolute magnetization    =    19.05 Bohr mag/cell

     iteration # 30     ecut=   100.00 Ry     beta= 0.40
     Davidson diagonalization with overlap
     ethr =  3.00E-12,  avg # of iterations =  3.1

     negative rho (up, down):  0.000E+00 9.486E-04

     total cpu time spent up to now is    13982.6 secs

     total energy              =   -2126.12545990 Ry
     estimated scf accuracy    <          2.5E-09 Ry

     total magnetization       =    19.00 Bohr mag/cell
     absolute magnetization    =    19.05 Bohr mag/cell

     iteration # 31     ecut=   100.00 Ry     beta= 0.40
     Davidson diagonalization with overlap
     ethr =  1.30E-12,  avg # of iterations =  2.2

     negative rho (up, down):  0.000E+00 9.486E-04

     total cpu time spent up to now is    14450.1 secs

     total energy              =   -2126.12545990 Ry
     estimated scf accuracy    <          2.8E-09 Ry

     total magnetization       =    19.00 Bohr mag/cell
     absolute magnetization    =    19.05 Bohr mag/cell

     iteration # 32     ecut=   100.00 Ry     beta= 0.40
     Davidson diagonalization with overlap
     ethr =  1.30E-12,  avg # of iterations =  1.4

     negative rho (up, down):  0.000E+00 9.486E-04

     total cpu time spent up to now is    14860.5 secs

     total energy              =   -2126.12545990 Ry
     estimated scf accuracy    <          4.8E-09 Ry

     total magnetization       =    19.00 Bohr mag/cell
     absolute magnetization    =    19.05 Bohr mag/cell

     iteration # 33     ecut=   100.00 Ry     beta= 0.40
     Davidson diagonalization with overlap
     ethr =  1.30E-12,  avg # of iterations =  1.0

     negative rho (up, down):  0.000E+00 9.487E-04

     total cpu time spent up to now is    15259.6 secs

     total energy              =   -2126.12545990 Ry
     estimated scf accuracy    <          2.2E-09 Ry

     total magnetization       =    19.00 Bohr mag/cell
     absolute magnetization    =    19.05 Bohr mag/cell

     iteration # 34     ecut=   100.00 Ry     beta= 0.40
     Davidson diagonalization with overlap
     ethr =  1.15E-12,  avg # of iterations =  1.0

     negative rho (up, down):  0.000E+00 9.487E-04

     total cpu time spent up to now is    15657.9 secs

     total energy              =   -2126.12545990 Ry
     estimated scf accuracy    <          4.1E-10 Ry

     total magnetization       =    19.00 Bohr mag/cell
     absolute magnetization    =    19.05 Bohr mag/cell

     iteration # 35     ecut=   100.00 Ry     beta= 0.40
     Davidson diagonalization with overlap
     ethr =  2.15E-13,  avg # of iterations =  2.2

     negative rho (up, down):  0.000E+00 9.487E-04

     total cpu time spent up to now is    16087.6 secs

     total energy              =   -2126.12545990 Ry
     estimated scf accuracy    <          1.1E-09 Ry

     total magnetization       =    19.00 Bohr mag/cell
     absolute magnetization    =    19.05 Bohr mag/cell

     iteration # 36     ecut=   100.00 Ry     beta= 0.40
     Davidson diagonalization with overlap
     ethr =  2.15E-13,  avg # of iterations =  1.0

     negative rho (up, down):  0.000E+00 9.487E-04

     total cpu time spent up to now is    16486.7 secs

     total energy              =   -2126.12545990 Ry
     estimated scf accuracy    <          2.9E-10 Ry

     total magnetization       =    19.00 Bohr mag/cell
     absolute magnetization    =    19.05 Bohr mag/cell

     iteration # 37     ecut=   100.00 Ry     beta= 0.40
     Davidson diagonalization with overlap
     ethr =  1.51E-13,  avg # of iterations =  1.1

     negative rho (up, down):  0.000E+00 9.487E-04

     Magnetic moment per site:
     atom:    1    charge:    7.9272    magn:    0.0006    constr:    0.0000
     atom:    2    charge:   12.9031    magn:    3.6779    constr:    0.0000
     atom:    3    charge:   12.9099    magn:    3.6588    constr:    0.0000
     atom:    4    charge:   12.9219    magn:    3.6364    constr:    0.0000
     atom:    5    charge:   12.9111    magn:    3.6588    constr:    0.0000
     atom:    6    charge:    0.8433    magn:    0.0104    constr:    0.0000
     atom:    7    charge:    0.8470    magn:    0.0082    constr:    0.0000
     atom:    8    charge:    0.8446    magn:    0.0106    constr:    0.0000
     atom:    9    charge:    0.8425    magn:    0.0083    constr:    0.0000
     atom:   10    charge:    4.2685    magn:    0.1353    constr:    0.0000
     atom:   11    charge:    4.2800    magn:    0.0838    constr:    0.0000
     atom:   12    charge:    4.2703    magn:    0.1311    constr:    0.0000
     atom:   13    charge:    4.2673    magn:    0.0919    constr:    0.0000
     atom:   14    charge:    4.2408    magn:    0.1021    constr:    0.0000
     atom:   15    charge:    4.2477    magn:    0.1365    constr:    0.0000
     atom:   16    charge:    4.2497    magn:    0.0862    constr:    0.0000
     atom:   17    charge:    4.2455    magn:    0.1437    constr:    0.0000
     atom:   18    charge:    4.2397    magn:    0.1479    constr:    0.0000
     atom:   19    charge:    4.2400    magn:    0.1233    constr:    0.0000
     atom:   20    charge:    4.2448    magn:    0.1534    constr:    0.0000
     atom:   21    charge:    4.2430    magn:    0.1351    constr:    0.0000
     atom:   22    charge:    4.2422    magn:    0.1419    constr:    0.0000
     atom:   23    charge:    4.2472    magn:    0.1186    constr:    0.0000
     atom:   24    charge:    4.2413    magn:    0.1527    constr:    0.0000
     atom:   25    charge:    4.2464    magn:    0.1323    constr:    0.0000

     total cpu time spent up to now is    16888.6 secs

     End of self-consistent calculation

 ------ SPIN UP ------------


          k = 0.0000 0.0000 0.0000 ( 37059 PWs)   bands (ev):

   -85.4861 -85.4002 -85.3991 -85.3360 -51.5922 -51.5621 -51.5483 -51.5294
   -51.4474 -51.3763 -51.3271 -51.3109 -51.3079 -51.3030 -51.2803 -51.1589
   -44.9924 -17.0224 -16.9819 -16.9519 -16.2743 -16.0877 -15.9891 -15.8659
   -13.8796 -13.8539 -13.7800 -13.6983 -13.6325 -13.5978 -13.5789 -13.5304
   -13.5030 -13.4588 -13.4322 -13.3938  -4.2623  -3.7674  -3.7466  -3.3373
    -2.3529  -2.0102  -1.9939  -1.8499  -1.6381  -1.4835  -1.4265  -1.3801
    -1.2699  -1.0749  -0.8672  -0.6037  -0.4828  -0.4724   0.0199   0.0899
     0.2022   0.2503   0.3810   0.5419   0.6138   0.6603   0.7699   0.8864
     0.9496   1.1107   1.1484   1.2271   1.4421   1.4686   1.5230   1.5436
     1.6853   1.8181   1.9425   1.9942   2.0214   2.1361   2.1695   2.2994
     2.4041   2.4656   2.5198   2.6376   2.6932   2.7857   2.8410   2.9445
     3.0549   3.0942   3.1645   3.2059   3.2785   3.4730   3.4981   3.6609
     3.7170   3.8568   3.8722   3.9307   4.1123   4.2102   4.5178   4.6131
     8.7062  10.7477  11.2318  11.5446  11.7875  12.5197  12.6718  12.9723
    13.1445  13.2768

     occupation numbers 
     1.0000   1.0000   1.0000   1.0000   1.0000   1.0000   1.0000   1.0000
     1.0000   1.0000   1.0000   1.0000   1.0000   1.0000   1.0000   1.0000
     1.0000   1.0000   1.0000   1.0000   1.0000   1.0000   1.0000   1.0000
     1.0000   1.0000   1.0000   1.0000   1.0000   1.0000   1.0000   1.0000
     1.0000   1.0000   1.0000   1.0000   1.0000   1.0000   1.0000   1.0000
     1.0000   1.0000   1.0000   1.0000   1.0000   1.0000   1.0000   1.0000
     1.0000   1.0000   1.0000   1.0000   1.0000   1.0000   1.0000   1.0000
     1.0000   1.0000   1.0000   1.0000   1.0000   1.0000   1.0000   1.0000
     1.0000   1.0000   1.0000   1.0000   1.0000   1.0000   1.0000   1.0000
     1.0000   1.0000   1.0000   1.0000   1.0000   1.0000   1.0000   1.0000
     1.0000   1.0000   1.0000   1.0000   1.0000   1.0000   1.0000   1.0000
     1.0000   1.0000   1.0000   1.0000   1.0000   1.0000   1.0000   1.0000
     1.0000   1.0000   1.0000   1.0000   1.0000   1.0000   1.0000   1.0000
     0.0000   0.0000   0.0000   0.0000   0.0000   0.0000   0.0000   0.0000
     0.0000   0.0000

          k = 0.0000 0.0000 0.2376 ( 37071 PWs)   bands (ev):

   -85.4861 -85.4002 -85.3991 -85.3360 -51.5922 -51.5621 -51.5483 -51.5294
   -51.4474 -51.3763 -51.3271 -51.3109 -51.3079 -51.3030 -51.2804 -51.1589
   -44.9924 -17.0228 -16.9815 -16.9546 -16.2561 -16.0805 -15.9830 -15.8653
   -13.8943 -13.8639 -13.7931 -13.7074 -13.6309 -13.5967 -13.5789 -13.5312
   -13.5011 -13.4619 -13.4349 -13.3980  -4.2400  -3.7658  -3.7400  -3.3478
    -2.3059  -2.0089  -1.9625  -1.8320  -1.6331  -1.5076  -1.4411  -1.3125
    -1.2527  -1.0428  -0.9128  -0.5815  -0.5263  -0.4540   0.0334   0.1038
     0.2010   0.2867   0.3741   0.5431   0.6049   0.6455   0.7467   0.8985
     0.9450   1.1070   1.1334   1.2191   1.4029   1.4239   1.4840   1.5273
     1.7578   1.7953   1.8823   1.9722   2.0224   2.1031   2.1663   2.3362
     2.3838   2.4837   2.5340   2.6091   2.7483   2.7832   2.8227   2.8962
     3.0434   3.0783   3.1790   3.2073   3.2391   3.4967   3.5358   3.6649
     3.7396   3.8633   3.9037   3.9266   4.1046   4.2100   4.4929   4.5901
     8.8544  10.8218  11.2770  11.5463  11.8459  12.4248  12.7387  12.8831
    13.0456  13.2505

     occupation numbers 
     1.0000   1.0000   1.0000   1.0000   1.0000   1.0000   1.0000   1.0000
     1.0000   1.0000   1.0000   1.0000   1.0000   1.0000   1.0000   1.0000
     1.0000   1.0000   1.0000   1.0000   1.0000   1.0000   1.0000   1.0000
     1.0000   1.0000   1.0000   1.0000   1.0000   1.0000   1.0000   1.0000
     1.0000   1.0000   1.0000   1.0000   1.0000   1.0000   1.0000   1.0000
     1.0000   1.0000   1.0000   1.0000   1.0000   1.0000   1.0000   1.0000
     1.0000   1.0000   1.0000   1.0000   1.0000   1.0000   1.0000   1.0000
     1.0000   1.0000   1.0000   1.0000   1.0000   1.0000   1.0000   1.0000
     1.0000   1.0000   1.0000   1.0000   1.0000   1.0000   1.0000   1.0000
     1.0000   1.0000   1.0000   1.0000   1.0000   1.0000   1.0000   1.0000
     1.0000   1.0000   1.0000   1.0000   1.0000   1.0000   1.0000   1.0000
     1.0000   1.0000   1.0000   1.0000   1.0000   1.0000   1.0000   1.0000
     1.0000   1.0000   1.0000   1.0000   1.0000   1.0000   1.0000   1.0000
     0.0000   0.0000   0.0000   0.0000   0.0000   0.0000   0.0000   0.0000
     0.0000   0.0000

          k = 0.0000 0.0000 0.4753 ( 37078 PWs)   bands (ev):

   -85.4861 -85.4002 -85.3991 -85.3360 -51.5922 -51.5621 -51.5483 -51.5294
   -51.4474 -51.3763 -51.3271 -51.3109 -51.3079 -51.3030 -51.2804 -51.1589
   -44.9924 -17.0257 -16.9808 -16.9586 -16.2077 -16.0623 -15.9676 -15.8653
   -13.9302 -13.8909 -13.8273 -13.7374 -13.6234 -13.5919 -13.5768 -13.5317
   -13.4972 -13.4700 -13.4415 -13.4097  -4.1749  -3.7611  -3.7279  -3.3891
    -2.1754  -1.9953  -1.8835  -1.8068  -1.6137  -1.5329  -1.4416  -1.2610
    -1.1249  -1.0298  -0.9559  -0.6538  -0.5007  -0.3988   0.0755   0.1370
     0.2194   0.3408   0.3732   0.5537   0.5702   0.6243   0.6677   0.9189
     0.9476   1.0743   1.1295   1.1871   1.2817   1.3482   1.4442   1.4957
     1.5944   1.7356   1.9202   1.9640   1.9862   2.0409   2.2193   2.2890
     2.4214   2.4744   2.5306   2.6124   2.6328   2.7504   2.8264   2.8916
     2.9534   3.1187   3.2301   3.2492   3.2786   3.5058   3.6093   3.6754
     3.7991   3.8979   3.9155   3.9660   4.0895   4.2118   4.4167   4.5209
     9.2506  11.0218  11.3636  11.5862  11.9934  12.3198  12.5881  12.7714
    12.8727  13.0146

     occupation numbers 
     1.0000   1.0000   1.0000   1.0000   1.0000   1.0000   1.0000   1.0000
     1.0000   1.0000   1.0000   1.0000   1.0000   1.0000   1.0000   1.0000
     1.0000   1.0000   1.0000   1.0000   1.0000   1.0000   1.0000   1.0000
     1.0000   1.0000   1.0000   1.0000   1.0000   1.0000   1.0000   1.0000
     1.0000   1.0000   1.0000   1.0000   1.0000   1.0000   1.0000   1.0000
     1.0000   1.0000   1.0000   1.0000   1.0000   1.0000   1.0000   1.0000
     1.0000   1.0000   1.0000   1.0000   1.0000   1.0000   1.0000   1.0000
     1.0000   1.0000   1.0000   1.0000   1.0000   1.0000   1.0000   1.0000
     1.0000   1.0000   1.0000   1.0000   1.0000   1.0000   1.0000   1.0000
     1.0000   1.0000   1.0000   1.0000   1.0000   1.0000   1.0000   1.0000
     1.0000   1.0000   1.0000   1.0000   1.0000   1.0000   1.0000   1.0000
     1.0000   1.0000   1.0000   1.0000   1.0000   1.0000   1.0000   1.0000
     1.0000   1.0000   1.0000   1.0000   1.0000   1.0000   1.0000   1.0000
     0.0000   0.0000   0.0000   0.0000   0.0000   0.0000   0.0000   0.0000
     0.0000   0.0000

          k = 0.0000 0.0000 0.7129 ( 37102 PWs)   bands (ev):

   -85.4861 -85.4002 -85.3991 -85.3360 -51.5922 -51.5621 -51.5483 -51.5294
   -51.4474 -51.3763 -51.3271 -51.3109 -51.3079 -51.3030 -51.2804 -51.1589
   -44.9924 -17.0320 -16.9804 -16.9588 -16.1453 -16.0445 -15.9495 -15.8692
   -13.9695 -13.9221 -13.8684 -13.7788 -13.6106 -13.5805 -13.5752 -13.5299
   -13.4980 -13.4765 -13.4485 -13.4258  -4.0751  -3.7766  -3.7049  -3.4664
    -2.0392  -1.9275  -1.8283  -1.7728  -1.5744  -1.5369  -1.4278  -1.2387
    -1.1584  -0.9353  -0.8374  -0.8087  -0.3752  -0.2910   0.1347   0.1789
     0.2355   0.3125   0.4258   0.5026   0.5440   0.5751   0.6588   0.9041
     0.9544   0.9979   1.0903   1.1646   1.1800   1.2328   1.3324   1.4255
     1.5099   1.6260   1.8380   1.8919   2.0262   2.1469   2.1906   2.3452
     2.3974   2.4364   2.4629   2.4834   2.6295   2.6467   2.7443   2.8477
     2.9788   3.1447   3.3229   3.3700   3.4838   3.5389   3.6303   3.6907
     3.8554   3.9112   3.9505   4.0166   4.1018   4.2094   4.2891   4.4078
     9.7936  11.2651  11.3465  11.7087  12.1152  12.2429  12.4319  12.5683
    12.7564  12.7987

     occupation numbers 
     1.0000   1.0000   1.0000   1.0000   1.0000   1.0000   1.0000   1.0000
     1.0000   1.0000   1.0000   1.0000   1.0000   1.0000   1.0000   1.0000
     1.0000   1.0000   1.0000   1.0000   1.0000   1.0000   1.0000   1.0000
     1.0000   1.0000   1.0000   1.0000   1.0000   1.0000   1.0000   1.0000
     1.0000   1.0000   1.0000   1.0000   1.0000   1.0000   1.0000   1.0000
     1.0000   1.0000   1.0000   1.0000   1.0000   1.0000   1.0000   1.0000
     1.0000   1.0000   1.0000   1.0000   1.0000   1.0000   1.0000   1.0000
     1.0000   1.0000   1.0000   1.0000   1.0000   1.0000   1.0000   1.0000
     1.0000   1.0000   1.0000   1.0000   1.0000   1.0000   1.0000   1.0000
     1.0000   1.0000   1.0000   1.0000   1.0000   1.0000   1.0000   1.0000
     1.0000   1.0000   1.0000   1.0000   1.0000   1.0000   1.0000   1.0000
     1.0000   1.0000   1.0000   1.0000   1.0000   1.0000   1.0000   1.0000
     1.0000   1.0000   1.0000   1.0000   1.0000   1.0000   1.0000   1.0000
     0.0000   0.0000   0.0000   0.0000   0.0000   0.0000   0.0000   0.0000
     0.0000   0.0000

          k = 0.0000 0.0000 0.9505 ( 37140 PWs)   bands (ev):

   -85.4861 -85.4002 -85.3991 -85.3360 -51.5922 -51.5621 -51.5483 -51.5294
   -51.4474 -51.3763 -51.3271 -51.3109 -51.3079 -51.3030 -51.2804 -51.1589
   -44.9924 -17.0373 -16.9803 -16.9570 -16.0917 -16.0424 -15.9358 -15.8761
   -13.9945 -13.9416 -13.8974 -13.8084 -13.5997 -13.5793 -13.5608 -13.5349
   -13.5018 -13.4759 -13.4523 -13.4399  -3.9600  -3.8401  -3.6568  -3.5542
    -1.9773  -1.8932  -1.7754  -1.7145  -1.5499  -1.4764  -1.4317  -1.3532
    -1.1049  -0.9730  -0.8108  -0.7264  -0.1871  -0.1027   0.0775   0.1470
     0.2447   0.2729   0.3984   0.4315   0.5183   0.6068   0.7344   0.8011
     0.9209   0.9399   1.0076   1.1040   1.1330   1.1837   1.2455   1.4195
     1.5625   1.6276   1.6992   1.8028   2.0461   2.1684   2.2673   2.3116
     2.3657   2.3930   2.4363   2.4808   2.5316   2.5772   2.7116   2.8393
     2.9912   3.1500   3.3839   3.4865   3.5402   3.6356   3.6968   3.7842
     3.8213   3.9406   4.0226   4.0345   4.1039   4.1586   4.2058   4.2751
    10.3836  10.9441  11.6099  11.8831  12.0078  12.1339  12.3906  12.4945
    12.7450  12.7853

     occupation numbers 
     1.0000   1.0000   1.0000   1.0000   1.0000   1.0000   1.0000   1.0000
     1.0000   1.0000   1.0000   1.0000   1.0000   1.0000   1.0000   1.0000
     1.0000   1.0000   1.0000   1.0000   1.0000   1.0000   1.0000   1.0000
     1.0000   1.0000   1.0000   1.0000   1.0000   1.0000   1.0000   1.0000
     1.0000   1.0000   1.0000   1.0000   1.0000   1.0000   1.0000   1.0000
     1.0000   1.0000   1.0000   1.0000   1.0000   1.0000   1.0000   1.0000
     1.0000   1.0000   1.0000   1.0000   1.0000   1.0000   1.0000   1.0000
     1.0000   1.0000   1.0000   1.0000   1.0000   1.0000   1.0000   1.0000
     1.0000   1.0000   1.0000   1.0000   1.0000   1.0000   1.0000   1.0000
     1.0000   1.0000   1.0000   1.0000   1.0000   1.0000   1.0000   1.0000
     1.0000   1.0000   1.0000   1.0000   1.0000   1.0000   1.0000   1.0000
     1.0000   1.0000   1.0000   1.0000   1.0000   1.0000   1.0000   1.0000
     1.0000   1.0000   1.0000   1.0000   1.0000   1.0000   1.0000   1.0000
     0.0000   0.0000   0.0000   0.0000   0.0000   0.0000   0.0000   0.0000
     0.0000   0.0000

          k = 0.0000 0.2430 0.0000 ( 37033 PWs)   bands (ev):

   -85.4861 -85.4002 -85.3991 -85.3360 -51.5922 -51.5621 -51.5483 -51.5294
   -51.4474 -51.3763 -51.3271 -51.3109 -51.3079 -51.3030 -51.2803 -51.1589
   -44.9924 -17.0228 -16.9821 -16.9519 -16.2563 -16.0857 -15.9863 -15.8841
   -13.8759 -13.8535 -13.7821 -13.7036 -13.6593 -13.6122 -13.5919 -13.5334
   -13.4736 -13.4448 -13.4287 -13.3908  -4.2356  -3.7780  -3.7321  -3.3474
    -2.3242  -2.0013  -1.9987  -1.8545  -1.6172  -1.4840  -1.4029  -1.3640
    -1.2327  -1.0783  -0.8490  -0.5894  -0.5381  -0.4269   0.0630   0.1256
     0.1942   0.2319   0.3025   0.4085   0.5305   0.7424   0.8422   0.9023
     1.0395   1.1182   1.1302   1.2135   1.3033   1.3364   1.4611   1.5195
     1.6899   1.9335   1.9736   2.0247   2.0656   2.1378   2.1643   2.2406
     2.4081   2.4500   2.4802   2.5435   2.6576   2.8159   2.8953   3.0110
     3.0243   3.0501   3.1058   3.2620   3.3406   3.4720   3.4942   3.6636
     3.7104   3.8008   3.8820   3.9579   4.0575   4.2335   4.5459   4.5993
     8.8640  10.8388  11.3082  11.4559  11.8761  12.5533  12.6543  13.0177
    13.0786  13.2596

     occupation numbers 
     1.0000   1.0000   1.0000   1.0000   1.0000   1.0000   1.0000   1.0000
     1.0000   1.0000   1.0000   1.0000   1.0000   1.0000   1.0000   1.0000
     1.0000   1.0000   1.0000   1.0000   1.0000   1.0000   1.0000   1.0000
     1.0000   1.0000   1.0000   1.0000   1.0000   1.0000   1.0000   1.0000
     1.0000   1.0000   1.0000   1.0000   1.0000   1.0000   1.0000   1.0000
     1.0000   1.0000   1.0000   1.0000   1.0000   1.0000   1.0000   1.0000
     1.0000   1.0000   1.0000   1.0000   1.0000   1.0000   1.0000   1.0000
     1.0000   1.0000   1.0000   1.0000   1.0000   1.0000   1.0000   1.0000
     1.0000   1.0000   1.0000   1.0000   1.0000   1.0000   1.0000   1.0000
     1.0000   1.0000   1.0000   1.0000   1.0000   1.0000   1.0000   1.0000
     1.0000   1.0000   1.0000   1.0000   1.0000   1.0000   1.0000   1.0000
     1.0000   1.0000   1.0000   1.0000   1.0000   1.0000   1.0000   1.0000
     1.0000   1.0000   1.0000   1.0000   1.0000   1.0000   1.0000   1.0000
     0.0000   0.0000   0.0000   0.0000   0.0000   0.0000   0.0000   0.0000
     0.0000   0.0000

          k = 0.0000 0.2430 0.2376 ( 37055 PWs)   bands (ev):

   -85.4861 -85.4002 -85.3991 -85.3360 -51.5922 -51.5621 -51.5483 -51.5294
   -51.4474 -51.3763 -51.3271 -51.3109 -51.3079 -51.3030 -51.2804 -51.1589
   -44.9924 -17.0238 -16.9818 -16.9544 -16.2360 -16.0790 -15.9800 -15.8844
   -13.8935 -13.8614 -13.7995 -13.7093 -13.6582 -13.6158 -13.5863 -13.5350
   -13.4777 -13.4455 -13.4294 -13.3917  -4.2138  -3.7718  -3.7299  -3.3560
    -2.2794  -1.9977  -1.9682  -1.8346  -1.6138  -1.5083  -1.4091  -1.2975
    -1.2206  -1.0529  -0.8952  -0.5920  -0.5476  -0.4185   0.0760   0.1423
     0.1703   0.2519   0.3092   0.4204   0.5419   0.7484   0.8338   0.8821
     1.0177   1.0951   1.1469   1.2015   1.2812   1.3184   1.4340   1.5071
     1.7450   1.8722   1.9551   1.9820   2.0561   2.0863   2.1581   2.3057
     2.3612   2.4317   2.5158   2.5748   2.6624   2.7785   2.8633   2.9908
     2.9982   3.0637   3.1207   3.2509   3.3231   3.4940   3.5226   3.6697
     3.7492   3.8058   3.9130   3.9593   4.0464   4.2262   4.5303   4.5793
     9.0059  10.9101  11.3572  11.4851  11.9167  12.4511  12.7375  12.8943
    13.0200  13.2152

     occupation numbers 
     1.0000   1.0000   1.0000   1.0000   1.0000   1.0000   1.0000   1.0000
     1.0000   1.0000   1.0000   1.0000   1.0000   1.0000   1.0000   1.0000
     1.0000   1.0000   1.0000   1.0000   1.0000   1.0000   1.0000   1.0000
     1.0000   1.0000   1.0000   1.0000   1.0000   1.0000   1.0000   1.0000
     1.0000   1.0000   1.0000   1.0000   1.0000   1.0000   1.0000   1.0000
     1.0000   1.0000   1.0000   1.0000   1.0000   1.0000   1.0000   1.0000
     1.0000   1.0000   1.0000   1.0000   1.0000   1.0000   1.0000   1.0000
     1.0000   1.0000   1.0000   1.0000   1.0000   1.0000   1.0000   1.0000
     1.0000   1.0000   1.0000   1.0000   1.0000   1.0000   1.0000   1.0000
     1.0000   1.0000   1.0000   1.0000   1.0000   1.0000   1.0000   1.0000
     1.0000   1.0000   1.0000   1.0000   1.0000   1.0000   1.0000   1.0000
     1.0000   1.0000   1.0000   1.0000   1.0000   1.0000   1.0000   1.0000
     1.0000   1.0000   1.0000   1.0000   1.0000   1.0000   1.0000   1.0000
     0.0000   0.0000   0.0000   0.0000   0.0000   0.0000   0.0000   0.0000
     0.0000   0.0000

          k = 0.0000 0.2430 0.4753 ( 37078 PWs)   bands (ev):

   -85.4861 -85.4002 -85.3991 -85.3360 -51.5922 -51.5621 -51.5483 -51.5294
   -51.4474 -51.3763 -51.3271 -51.3109 -51.3079 -51.3030 -51.2804 -51.1589
   -44.9924 -17.0267 -16.9811 -16.9582 -16.1881 -16.0597 -15.9665 -15.8821
   -13.9321 -13.8888 -13.8361 -13.7392 -13.6532 -13.6096 -13.5791 -13.5368
   -13.4839 -13.4491 -13.4336 -13.3986  -4.1505  -3.7652  -3.7170  -3.3944
    -2.1529  -1.9823  -1.8867  -1.8054  -1.5987  -1.5258  -1.4135  -1.2284
    -1.1189  -1.0132  -0.9665  -0.6831  -0.4925  -0.3883   0.1049   0.1540
     0.1851   0.2334   0.3583   0.4703   0.5553   0.7153   0.7586   0.9036
     0.9793   1.0861   1.1225   1.1712   1.2120   1.3038   1.3699   1.4999
     1.6415   1.7813   1.9024   1.9664   1.9821   2.0851   2.1743   2.2746
     2.3890   2.4688   2.5284   2.5677   2.6396   2.6709   2.8081   2.8806
     2.9784   3.0874   3.2020   3.2917   3.3300   3.5204   3.5893   3.6802
     3.8134   3.8392   3.9043   4.0072   4.0428   4.2205   4.4829   4.5257
     9.3879  11.1068  11.4465  11.5743  12.0386  12.3556  12.6128  12.7734
    12.8892  13.0535

     occupation numbers 
     1.0000   1.0000   1.0000   1.0000   1.0000   1.0000   1.0000   1.0000
     1.0000   1.0000   1.0000   1.0000   1.0000   1.0000   1.0000   1.0000
     1.0000   1.0000   1.0000   1.0000   1.0000   1.0000   1.0000   1.0000
     1.0000   1.0000   1.0000   1.0000   1.0000   1.0000   1.0000   1.0000
     1.0000   1.0000   1.0000   1.0000   1.0000   1.0000   1.0000   1.0000
     1.0000   1.0000   1.0000   1.0000   1.0000   1.0000   1.0000   1.0000
     1.0000   1.0000   1.0000   1.0000   1.0000   1.0000   1.0000   1.0000
     1.0000   1.0000   1.0000   1.0000   1.0000   1.0000   1.0000   1.0000
     1.0000   1.0000   1.0000   1.0000   1.0000   1.0000   1.0000   1.0000
     1.0000   1.0000   1.0000   1.0000   1.0000   1.0000   1.0000   1.0000
     1.0000   1.0000   1.0000   1.0000   1.0000   1.0000   1.0000   1.0000
     1.0000   1.0000   1.0000   1.0000   1.0000   1.0000   1.0000   1.0000
     1.0000   1.0000   1.0000   1.0000   1.0000   1.0000   1.0000   1.0000
     0.0000   0.0000   0.0000   0.0000   0.0000   0.0000   0.0000   0.0000
     0.0000   0.0000

          k = 0.0000 0.2430 0.7129 ( 37105 PWs)   bands (ev):

   -85.4861 -85.4002 -85.3991 -85.3360 -51.5922 -51.5621 -51.5483 -51.5294
   -51.4474 -51.3763 -51.3271 -51.3109 -51.3079 -51.3030 -51.2804 -51.1589
   -44.9924 -17.0324 -16.9805 -16.9585 -16.1296 -16.0383 -15.9533 -15.8800
   -13.9733 -13.9226 -13.8774 -13.7821 -13.6420 -13.5991 -13.5708 -13.5343
   -13.4952 -13.4536 -13.4375 -13.4094  -4.0543  -3.7783  -3.6911  -3.4676
    -2.0176  -1.9196  -1.8172  -1.7763  -1.5715  -1.5149  -1.4034  -1.2108
    -1.1443  -0.9393  -0.8438  -0.8109  -0.3988  -0.3162   0.0771   0.1614
     0.2076   0.2581   0.4188   0.5496   0.5861   0.6247   0.7134   0.9110
     0.9252   1.0516   1.0702   1.1193   1.1683   1.2580   1.3003   1.3949
     1.5145   1.6484   1.7796   1.9158   2.0711   2.1150   2.1518   2.2808
     2.3877   2.4523   2.5060   2.5273   2.5674   2.6243   2.6934   2.8416
     2.9691   3.0922   3.3194   3.3890   3.4385   3.5579   3.6178   3.6922
     3.8398   3.8720   3.9111   4.0189   4.1103   4.2166   4.4047   4.4487
     9.9161  11.3660  11.4210  11.7289  12.1643  12.3248  12.4470  12.5949
    12.7392  12.8285

     occupation numbers 
     1.0000   1.0000   1.0000   1.0000   1.0000   1.0000   1.0000   1.0000
     1.0000   1.0000   1.0000   1.0000   1.0000   1.0000   1.0000   1.0000
     1.0000   1.0000   1.0000   1.0000   1.0000   1.0000   1.0000   1.0000
     1.0000   1.0000   1.0000   1.0000   1.0000   1.0000   1.0000   1.0000
     1.0000   1.0000   1.0000   1.0000   1.0000   1.0000   1.0000   1.0000
     1.0000   1.0000   1.0000   1.0000   1.0000   1.0000   1.0000   1.0000
     1.0000   1.0000   1.0000   1.0000   1.0000   1.0000   1.0000   1.0000
     1.0000   1.0000   1.0000   1.0000   1.0000   1.0000   1.0000   1.0000
     1.0000   1.0000   1.0000   1.0000   1.0000   1.0000   1.0000   1.0000
     1.0000   1.0000   1.0000   1.0000   1.0000   1.0000   1.0000   1.0000
     1.0000   1.0000   1.0000   1.0000   1.0000   1.0000   1.0000   1.0000
     1.0000   1.0000   1.0000   1.0000   1.0000   1.0000   1.0000   1.0000
     1.0000   1.0000   1.0000   1.0000   1.0000   1.0000   1.0000   1.0000
     0.0000   0.0000   0.0000   0.0000   0.0000   0.0000   0.0000   0.0000
     0.0000   0.0000

          k = 0.0000 0.2430 0.9505 ( 37114 PWs)   bands (ev):

   -85.4861 -85.4002 -85.3991 -85.3360 -51.5922 -51.5621 -51.5483 -51.5294
   -51.4474 -51.3763 -51.3271 -51.3109 -51.3079 -51.3030 -51.2804 -51.1589
   -44.9924 -17.0369 -16.9803 -16.9569 -16.0824 -16.0351 -15.9406 -15.8804
   -13.9996 -13.9435 -13.9065 -13.8123 -13.6300 -13.5926 -13.5635 -13.5302
   -13.5075 -13.4565 -13.4377 -13.4211  -3.9456  -3.8305  -3.6494  -3.5496
    -1.9582  -1.8771  -1.7739  -1.7165  -1.5470  -1.4610  -1.4074  -1.3119
    -1.1067  -0.9622  -0.8135  -0.7236  -0.2644  -0.1745  -0.0286   0.0317
[...]
     atom   11 type  3   force =    -0.00112195   -0.00029178    0.00228734
     atom   12 type  3   force =    -0.00554886    0.00106899   -0.00314168
     atom   13 type  3   force =     0.00235966    0.00095972   -0.00192290
     atom   14 type  3   force =     0.03012998    0.00136895   -0.00515896
     atom   15 type  3   force =    -0.02647204    0.00040505   -0.00955673
     atom   16 type  3   force =    -0.03108304    0.00066146    0.00293364
     atom   17 type  3   force =     0.02704508    0.00012621    0.00721574
     atom   18 type  3   force =    -0.00250431   -0.00303305    0.00154025
     atom   19 type  3   force =     0.00376387    0.00235154    0.00159877
     atom   20 type  3   force =     0.00374221   -0.00167596   -0.00192995
     atom   21 type  3   force =    -0.00369868    0.00240967   -0.00229014
     atom   22 type  3   force =     0.00421872    0.00338605   -0.00212840
     atom   23 type  3   force =    -0.00481276   -0.00143488   -0.00097471
     atom   24 type  3   force =    -0.00228803    0.00319172    0.00229023
     atom   25 type  3   force =     0.00338924   -0.00001599    0.00308103
     The non-local contrib.  to forces
     atom    1 type  2   force =     0.02923470    0.01153956   -0.01001762
     atom    2 type  1   force =     0.09638953    0.04954115    0.12701295
     atom    3 type  1   force =     0.04974319   -0.00472706    0.11014518
     atom    4 type  1   force =    -0.15096904   -0.06815435   -0.10726657
     atom    5 type  1   force =    -0.04943051    0.01823760   -0.09712401
     atom    6 type  4   force =    -0.04834141   -0.00004556   -0.05218144
     atom    7 type  4   force =     0.05824017   -0.00185798   -0.02915285
     atom    8 type  4   force =     0.03527110    0.00846242    0.05673212
     atom    9 type  4   force =    -0.02975692   -0.00112833    0.04815789
     atom   10 type  3   force =     0.31207887   -0.02695739   -1.51122308
     atom   11 type  3   force =    -0.12858316   -0.01703256   -1.46057282
     atom   12 type  3   force =    -0.37761296    0.01617318    1.51552871
     atom   13 type  3   force =     0.24088734    0.00312129    1.50519858
     atom   14 type  3   force =     1.24776605   -0.02059854   -0.61182027
     atom   15 type  3   force =    -1.20967441    0.02147807   -0.72294646
     atom   16 type  3   force =    -1.23219018   -0.05603190    0.37807119
     atom   17 type  3   force =     1.19474749   -0.00973727    0.62968117
     atom   18 type  3   force =    -0.55494829   -1.09264814    0.75076280
     atom   19 type  3   force =     0.54791796    1.14560145    0.75661233
     atom   20 type  3   force =     0.53299192   -1.06548880   -0.68801051
     atom   21 type  3   force =    -0.55557700    1.06061099   -0.77550197
     atom   22 type  3   force =     0.61150097    1.10194588   -0.71342085
     atom   23 type  3   force =    -0.69487890   -1.02721902   -0.62065638
     atom   24 type  3   force =    -0.53848686    1.07364106    0.76466073
     atom   25 type  3   force =     0.59206140   -1.08752085    0.83256096
     The ionic contribution  to forces
     atom    1 type  2   force =    -1.68330790    0.34697468    0.26720839
     atom    2 type  1   force =    -0.39694772   -0.48106927   -0.35804010
     atom    3 type  1   force =    -9.43625825    1.00775365   -0.31921707
     atom    4 type  1   force =     2.22446203    1.06726580    0.44820040
     atom    5 type  1   force =     9.61431650   -1.36777434    0.67371021
     atom    6 type  4   force =    -4.23746442   -0.03946507    0.24394734
     atom    7 type  4   force =     1.28378490    1.22219099    0.65715285
     atom    8 type  4   force =     5.09538755   -0.02548463   -0.29315412
     atom    9 type  4   force =    -2.54208733   -1.36819521   -0.73548305
     atom   10 type  3   force =   -10.58022653    0.09738726    2.92908852
     atom   11 type  3   force =     4.74770205    1.98673115    1.69304649
     atom   12 type  3   force =    11.69313044   -0.15426894   -3.01202137
     atom   13 type  3   force =    -7.29366995   -1.92841210   -2.36833000
     atom   14 type  3   force =     0.18664352   -1.84066899    4.69168675
     atom   15 type  3   force =    -2.35734417   -0.12710751    6.41407179
     atom   16 type  3   force =    -1.18804510    2.63976040   -2.54681400
     atom   17 type  3   force =     3.40165300    0.13372918   -5.83403029
     atom   18 type  3   force =    -4.80072590    2.92555548   -2.89240095
     atom   19 type  3   force =    -0.23194124   -3.79984819   -1.66097481
     atom   20 type  3   force =     5.15490984    3.40736344    2.38522439
     atom   21 type  3   force =    -2.02201105   -2.25955902    2.71416013
     atom   22 type  3   force =     5.36800986   -3.54611360    2.67930509
     atom   23 type  3   force =     1.17670126    1.71723169    0.31019113
     atom   24 type  3   force =    -4.46186911   -2.71501743   -2.96291291
     atom   25 type  3   force =     1.28519774    3.10104059   -3.12361483
     The local contribution  to forces
     atom    1 type  2   force =     1.64805782   -0.37220665   -0.25618883
     atom    2 type  1   force =     0.30111701    0.43250917    0.22832744
     atom    3 type  1   force =     9.38030547   -1.00317787    0.20921934
     atom    4 type  1   force =    -2.07362202   -0.99991824   -0.33718401
     atom    5 type  1   force =    -9.55706917    1.35117700   -0.57748139
     atom    6 type  4   force =     4.25848801    0.04007062   -0.20287298
     atom    7 type  4   force =    -1.31362155   -1.21950280   -0.63424497
     atom    8 type  4   force =    -5.10518816    0.01744733    0.24880558
     atom    9 type  4   force =     2.54684041    1.36948441    0.69626451
     atom   10 type  3   force =    10.27694601   -0.07012201   -1.42840240
     atom   11 type  3   force =    -4.62207608   -1.97012913   -0.24284339
     atom   12 type  3   force =   -11.32514262    0.13933912    1.50655641
     atom   13 type  3   force =     7.05797139    1.92627721    0.87432974
     atom   14 type  3   force =    -1.39324908    1.86240047   -4.09105269
     atom   15 type  3   force =     3.52979688    0.10624244   -5.70771064
     atom   16 type  3   force =     2.37829224   -2.58350931    2.17550739
     atom   17 type  3   force =    -4.55870357   -0.12395281    5.21772828
     atom   18 type  3   force =     5.34827050   -1.84547186    2.15002058
     atom   19 type  3   force =    -0.30745093    2.66664671    0.91291001
     atom   20 type  3   force =    -5.67944983   -2.35281504   -1.70540098
     atom   21 type  3   force =     2.56901649    1.21057300   -1.94810686
     atom   22 type  3   force =    -5.96983417    2.45715676   -1.97451090
     atom   23 type  3   force =    -0.49279601   -0.70040014    0.30378151
     atom   24 type  3   force =     4.99333829    1.65390245    2.20754599
     atom   25 type  3   force =    -1.86867457   -2.02289370    2.30181030
     The core correction contribution to forces
     atom    1 type  2   force =     0.00000000    0.00000000    0.00000000
     atom    2 type  1   force =    -0.00150049   -0.00044347   -0.00062751
     atom    3 type  1   force =    -0.00021602    0.00010989    0.00007181
     atom    4 type  1   force =     0.00253239    0.00074302    0.00043649
     atom    5 type  1   force =     0.00014965   -0.00033169   -0.00014164
     atom    6 type  4   force =     0.00437035   -0.00003064    0.00396380
     atom    7 type  4   force =    -0.00475833   -0.00015955    0.00202599
     atom    8 type  4   force =    -0.00355639   -0.00049138   -0.00429024
     atom    9 type  4   force =     0.00297683    0.00062051   -0.00322242
     atom   10 type  3   force =    -0.00348344    0.00024920    0.01320680
     atom   11 type  3   force =     0.00184001    0.00013871    0.01265506
     atom   12 type  3   force =     0.00407243   -0.00017440   -0.01320666
     atom   13 type  3   force =    -0.00282752   -0.00002684   -0.01312111
     atom   14 type  3   force =    -0.01103174    0.00023576    0.00602659
     atom   15 type  3   force =     0.01074316   -0.00020818    0.00703051
     atom   16 type  3   force =     0.01086433    0.00044222   -0.00383003
     atom   17 type  3   force =    -0.01065376    0.00008701   -0.00616321
     atom   18 type  3   force =     0.00489886    0.00952549   -0.00684500
     atom   19 type  3   force =    -0.00475962   -0.01005340   -0.00694563
     atom   20 type  3   force =    -0.00471138    0.00926319    0.00625866
     atom   21 type  3   force =     0.00487460   -0.00921743    0.00715810
     atom   22 type  3   force =    -0.00545940   -0.00960192    0.00649965
     atom   23 type  3   force =     0.00616251    0.00895418    0.00570875
     atom   24 type  3   force =     0.00472911   -0.00932852   -0.00700644
     atom   25 type  3   force =    -0.00519330    0.00936306   -0.00767221
     The Hubbard contrib.    to forces
     atom    1 type  2   force =     0.00000000    0.00000000    0.00000000
     atom    2 type  1   force =     0.00000000    0.00000000    0.00000000
     atom    3 type  1   force =     0.00000000    0.00000000    0.00000000
     atom    4 type  1   force =     0.00000000    0.00000000    0.00000000
     atom    5 type  1   force =     0.00000000    0.00000000    0.00000000
     atom    6 type  4   force =     0.00000000    0.00000000    0.00000000
     atom    7 type  4   force =     0.00000000    0.00000000    0.00000000
     atom    8 type  4   force =     0.00000000    0.00000000    0.00000000
     atom    9 type  4   force =     0.00000000    0.00000000    0.00000000
     atom   10 type  3   force =     0.00000000    0.00000000    0.00000000
     atom   11 type  3   force =     0.00000000    0.00000000    0.00000000
     atom   12 type  3   force =     0.00000000    0.00000000    0.00000000
     atom   13 type  3   force =     0.00000000    0.00000000    0.00000000
     atom   14 type  3   force =     0.00000000    0.00000000    0.00000000
     atom   15 type  3   force =     0.00000000    0.00000000    0.00000000
     atom   16 type  3   force =     0.00000000    0.00000000    0.00000000
     atom   17 type  3   force =     0.00000000    0.00000000    0.00000000
     atom   18 type  3   force =     0.00000000    0.00000000    0.00000000
     atom   19 type  3   force =     0.00000000    0.00000000    0.00000000
     atom   20 type  3   force =     0.00000000    0.00000000    0.00000000
     atom   21 type  3   force =     0.00000000    0.00000000    0.00000000
     atom   22 type  3   force =     0.00000000    0.00000000    0.00000000
     atom   23 type  3   force =     0.00000000    0.00000000    0.00000000
     atom   24 type  3   force =     0.00000000    0.00000000    0.00000000
     atom   25 type  3   force =     0.00000000    0.00000000    0.00000000
     The SCF correction term to forces
     atom    1 type  2   force =    -0.00000402    0.00000039    0.00000013
     atom    2 type  1   force =    -0.00000032    0.00000006    0.00000013
     atom    3 type  1   force =     0.00000104   -0.00000016    0.00000024
     atom    4 type  1   force =    -0.00000157    0.00000007   -0.00000052
     atom    5 type  1   force =     0.00000004    0.00000004    0.00000034
     atom    6 type  4   force =     0.00000054    0.00000001    0.00000033
     atom    7 type  4   force =    -0.00000217   -0.00000018   -0.00000045
     atom    8 type  4   force =     0.00000238    0.00000005   -0.00000023
     atom    9 type  4   force =    -0.00000121    0.00000008   -0.00000006
     atom   10 type  3   force =    -0.00000080    0.00000006   -0.00000204
     atom   11 type  3   force =    -0.00000478   -0.00000006    0.00000226
     atom   12 type  3   force =     0.00000383   -0.00000007    0.00000149
     atom   13 type  3   force =    -0.00000161    0.00000005    0.00000016
     atom   14 type  3   force =     0.00000121    0.00000014    0.00000092
     atom   15 type  3   force =     0.00000648    0.00000012   -0.00000167
     atom   16 type  3   force =    -0.00000434   -0.00000006   -0.00000064
     atom   17 type  3   force =     0.00000192   -0.00000001    0.00000006
     atom   18 type  3   force =     0.00000050    0.00000587    0.00000308
     atom   19 type  3   force =    -0.00000231    0.00000486   -0.00000286
     atom   20 type  3   force =     0.00000165    0.00000114   -0.00000125
     atom   21 type  3   force =    -0.00000172    0.00000201    0.00000072
     atom   22 type  3   force =     0.00000146   -0.00000118   -0.00000112
     atom   23 type  3   force =    -0.00000163   -0.00000170    0.00000054
     atom   24 type  3   force =     0.00000053   -0.00000596    0.00000312
     atom   25 type  3   force =    -0.00000204   -0.00000521   -0.00000293

     Total force =     0.079723     Total SCF correction =     0.000019


     Computing stress (Cartesian axis) and pressure


     negative rho (up, down):  0.000E+00 9.487E-04
          total   stress  (Ry/bohr**3)                   (kbar)     P=      -52.50
  -0.00068572  -0.00000928  -0.00002701         -100.87       -1.37       -3.97
  -0.00000928  -0.00025802   0.00002204           -1.37      -37.96        3.24
  -0.00002701   0.00002204  -0.00012682           -3.97        3.24      -18.66

     kinetic stress (kbar)  25865.31     13.49     -4.20
                               13.49  26118.45      3.22
                               -4.20      3.22  25933.48

     local   stress (kbar)  -4049.19   2337.18    965.03
                             2337.18 -14846.15   -878.43
                              965.03   -878.43  -7942.18

     nonloc. stress (kbar)  -6581.70      1.57     -1.28
                                1.57  -6535.76     -1.84
                               -1.28     -1.84  -6525.25

     hartree stress (kbar)  12165.32   -948.45   -379.22
                             -948.45  17875.55    354.05
                             -379.22    354.05  14476.49

     exc-cor stress (kbar)  -2746.83     -1.25     -0.80
                               -1.25  -2753.26      0.42
                               -0.80      0.42  -2751.35

     corecor stress (kbar)  -3062.88      0.43      0.83
                                0.43  -3062.70      0.01
                                0.83      0.01  -3064.88

     ewald   stress (kbar) -21690.90  -1404.35   -584.34
                            -1404.35 -16834.09    525.82
                             -584.34    525.82 -20144.96

     hubbard stress (kbar)      0.00      0.00      0.00
                                0.00      0.00      0.00
                                0.00      0.00      0.00

     DFT-D   stress (kbar)      0.00      0.00      0.00
                                0.00      0.00      0.00
                                0.00      0.00      0.00

     XDM     stress (kbar)      0.00      0.00      0.00
                                0.00      0.00      0.00
                                0.00      0.00      0.00

     dft-nl  stress (kbar)      0.00      0.00      0.00
                                0.00      0.00      0.00
                                0.00      0.00      0.00

     TS-vdW  stress (kbar)      0.00      0.00      0.00
                                0.00      0.00      0.00
                                0.00      0.00      0.00



     init_run     :    187.10s CPU    191.31s WALL (       1 calls)
     electrons    :  16395.07s CPU  16696.71s WALL (       1 calls)
     forces       :     67.28s CPU     68.59s WALL (       1 calls)
     stress       :    666.70s CPU    669.87s WALL (       1 calls)

     Called by init_run:
     wfcinit      :    175.70s CPU    179.46s WALL (       1 calls)
     wfcinit:atom :      2.49s CPU      2.51s WALL (     316 calls)
     wfcinit:wfcr :    163.54s CPU    167.23s WALL (     316 calls)
     potinit      :      4.06s CPU      4.21s WALL (       1 calls)
     hinit0       :      3.87s CPU      3.92s WALL (       1 calls)

     Called by electrons:
     c_bands      :  13236.60s CPU  13455.24s WALL (      37 calls)
     sum_band     :   3016.16s CPU   3085.48s WALL (      37 calls)
     v_of_rho     :     33.06s CPU     34.20s WALL (      38 calls)
     v_h          :      1.61s CPU      1.69s WALL (      38 calls)
     v_xc         :     33.12s CPU     34.23s WALL (      40 calls)
     newd         :     71.35s CPU     83.60s WALL (      38 calls)
     PAW_pot      :     30.95s CPU     31.02s WALL (      38 calls)
     mix_rho      :      7.45s CPU      7.74s WALL (      37 calls)

     Called by c_bands:
     init_us_2    :    248.34s CPU    250.25s WALL (   24332 calls)
     cegterg      :  12763.81s CPU  12979.07s WALL (   11692 calls)

     Called by sum_band:
     sum_band:wei :      0.53s CPU      0.54s WALL (      37 calls)
     sum_band:loo :   2835.12s CPU   2889.01s WALL (      37 calls)
     sum_band:buf :     67.61s CPU     68.28s WALL (   11692 calls)
     sum_band:ini :    120.92s CPU    121.61s WALL (   11692 calls)
     sum_band:cal :    358.66s CPU    365.82s WALL (   11692 calls)
     sum_band:bec :      3.79s CPU      3.91s WALL (   11692 calls)
     addusdens    :    171.76s CPU    186.97s WALL (      37 calls)
     addusd:skk   :      0.79s CPU      0.80s WALL (     111 calls)
     addusd:dgemm :     19.25s CPU     30.08s WALL (     222 calls)
     addusd:qvan2 :    150.49s CPU    151.19s WALL (     222 calls)

     Called by *egterg:
     cdiaghg      :    428.89s CPU    433.00s WALL (   43101 calls)
     cegterg:over :    621.36s CPU    632.73s WALL (   31409 calls)
     cegterg:upda :    452.97s CPU    457.56s WALL (   31409 calls)
     cegterg:last :    811.20s CPU    819.60s WALL (   19586 calls)
     h_psi        :   9245.67s CPU   9420.46s WALL (   43417 calls)
     s_psi        :    833.03s CPU    841.91s WALL (   43417 calls)
     g_psi        :     45.93s CPU     46.34s WALL (   31409 calls)

     Called by h_psi:
     h_psi:calbec :    861.95s CPU    877.86s WALL (   43417 calls)
     vloc_psi     :   7387.59s CPU   7535.86s WALL (   43417 calls)
     add_vuspsi   :    852.80s CPU    862.40s WALL (   43417 calls)

     General routines
     calbec       :   1265.05s CPU   1289.22s WALL (   56689 calls)
     fft          :     32.60s CPU     34.36s WALL (     988 calls)
     ffts         :      0.44s CPU      0.53s WALL (     150 calls)
     fftw         :   6932.98s CPU   7078.55s WALL ( 7159894 calls)
     interpolate  :      2.48s CPU      2.69s WALL (      76 calls)

     Parallel routines
     fft_scatt_xy :   1321.62s CPU   1352.26s WALL ( 7161032 calls)
     fft_scatt_yz :   1195.19s CPU   1226.82s WALL ( 7161032 calls)

     PAW routines
     PAW_pot      :     30.95s CPU     31.02s WALL (      38 calls)

     PWSCF        :      4h48m CPU      4h53m WALL


   This run was terminated on:   3: 2:35  16Dec2022            

=------------------------------------------------------------------------------=
   JOB DONE.
=------------------------------------------------------------------------------=
Note: The following floating-point exceptions are signalling: IEEE_UNDERFLOW_FLAG IEEE_DENORMAL
Note: The following floating-point exceptions are signalling: IEEE_DENORMAL
Note: The following floating-point exceptions are signalling: IEEE_DENORMAL
Note: The following floating-point exceptions are signalling: IEEE_DENORMAL
Note: The following floating-point exceptions are signalling: IEEE_DENORMAL
Note: The following floating-point exceptions are signalling: IEEE_INVALID_FLAG IEEE_DENORMAL
Note: The following floating-point exceptions are signalling: IEEE_INVALID_FLAG IEEE_DENORMAL
Note: The following floating-point exceptions are signalling: IEEE_DENORMAL
Note: The following floating-point exceptions are signalling: IEEE_DENORMAL
Note: The following floating-point exceptions are signalling: IEEE_DENORMAL
Note: The following floating-point exceptions are signalling: IEEE_DENORMAL
