
     Program PWSCF v.6.7MaX starts on 16Dec2022 at 10:46:36 

     This program is part of the open-source Quantum ESPRESSO suite
     for quantum simulation of materials; please cite
         "P. Giannozzi et al., J. Phys.:Condens. Matter 21 395502 (2009);
         "P. Giannozzi et al., J. Phys.:Condens. Matter 29 465901 (2017);
          URL http://www.quantum-espresso.org", 
     in publications or presentations arising from this work. More details at
     http://www.quantum-espresso.org/quote

     Parallel version (MPI), running on    16 processors

     MPI processes distributed on     1 nodes
     R & G space division:  proc/nbgrp/npool/nimage =      16
     Reading input from scale_3d-04.in

     Current dimensions of program PWSCF are:
     Max number of different atomic species (ntypx) = 10
     Max number of k-points (npk) =  40000
     Max angular momentum in pseudopotentials (lmaxx) =  3
     Message from routine read_pp_mesh:
     mesh size missing, using the one in header
     file Fe.pbe-spn-kjpaw_psl.0.2.1.UPF: wavefunction(s)  3D renormalized
     file O.pbe-n-kjpaw_psl.0.1.UPF: wavefunction(s)  2P renormalized

     Subspace diagonalization in iterative solution of the eigenvalue problem:
     a serial algorithm will be used


     Parallelization info
     --------------------
     sticks:   dense  smooth     PW     G-vecs:    dense   smooth      PW
     Min        1325     490    132                89298    20136    2814
     Max        1327     491    134                89299    20141    2815
     Sum       21211    7849   2119              1428783   322201   45025



     bravais-lattice index     =            0
     lattice parameter (alat)  =      20.3206  a.u.
     unit-cell volume          =    2383.6748 (a.u.)^3
     number of atoms/cell      =           25
     number of atomic types    =            4
     number of electrons       =       189.00
     number of Kohn-Sham states=          114
     kinetic-energy cutoff     =     100.0000  Ry
     charge density cutoff     =    1080.0000  Ry
     scf convergence threshold =      2.0E-10
     mixing beta               =       0.4000
     number of iterations used =            8  plain     mixing
     Exchange-correlation= PBE
                           (   1   4   3   4   0   0   0)

     celldm(1)=  20.320559  celldm(2)=   0.000000  celldm(3)=   0.000000
     celldm(4)=   0.000000  celldm(5)=   0.000000  celldm(6)=   0.000000

     crystal axes: (cart. coord. in units of alat)
               a(1) = (   1.000000   0.000000   0.000000 )  
               a(2) = (   0.000000   0.597590   0.000000 )  
               a(3) = (   0.000000   0.000000   0.475375 )  

     reciprocal axes: (cart. coord. in units 2 pi/alat)
               b(1) = (  1.000000  0.000000  0.000000 )  
               b(2) = (  0.000000  1.673388  0.000000 )  
               b(3) = (  0.000000  0.000000  2.103600 )  


     PseudoPot. # 1 for Fe read from file:
     /opt/QEpot/SSSP_precision_pseudos/Fe.pbe-spn-kjpaw_psl.0.2.1.UPF
     MD5 check sum: e86618425769142926afa95317d90200
     Pseudo is Projector augmented-wave + core cor, Zval = 16.0
     Generated using "atomic" code by A. Dal Corso  v.5.0.99 svn rev. 10869
     Shape of augmentation charge: PSQ
     Using radial grid of 1191 points,  6 beta functions with: 
                l(1) =   0
                l(2) =   0
                l(3) =   1
                l(4) =   1
                l(5) =   2
                l(6) =   2
     Q(r) pseudized with 0 coefficients 


     PseudoPot. # 2 for Na read from file:
     /opt/QEpot/SSSP_precision_pseudos/Na_ONCV_PBE-1.0.oncvpsp.upf
     MD5 check sum: 24a298df0a6742ae313db96548fdb2a4
     Pseudo is Norm-conserving, Zval =  9.0
     Generated using ONCVPSP code by D. R. Hamann
     Using radial grid of 1992 points,  4 beta functions with: 
                l(1) =   0
                l(2) =   0
                l(3) =   1
                l(4) =   1

     PseudoPot. # 3 for O  read from file:
     /opt/QEpot/SSSP_precision_pseudos/O.pbe-n-kjpaw_psl.0.1.UPF
     MD5 check sum: 0234752ac141de4415c5fc33072bef88
     Pseudo is Projector augmented-wave + core cor, Zval =  6.0
     Generated using "atomic" code by A. Dal Corso  v.5.0.99 svn rev. 10869
     Shape of augmentation charge: BESSEL
     Using radial grid of 1095 points,  4 beta functions with: 
                l(1) =   0
                l(2) =   0
                l(3) =   1
                l(4) =   1
     Q(r) pseudized with 0 coefficients 


     PseudoPot. # 4 for P  read from file:
     /opt/QEpot/SSSP_precision_pseudos/P.pbe-n-rrkjus_psl.1.0.0.UPF
     MD5 check sum: 8b930f418f0a4573dca56cd030ffe088
     Pseudo is Ultrasoft + core correction, Zval =  5.0
     Generated using "atomic" code by A. Dal Corso  v.5.1
     Using radial grid of 1147 points,  6 beta functions with: 
                l(1) =   0
                l(2) =   0
                l(3) =   1
                l(4) =   1
                l(5) =   2
                l(6) =   2
     Q(r) pseudized with 0 coefficients 


     atomic species   valence    mass     pseudopotential
        Fe            16.00    55.84500     Fe( 1.00)
        Na             9.00    22.98977     Na( 1.00)
        O              6.00    15.99940     O ( 1.00)
        P              5.00    30.97376     P ( 1.00)

     Starting magnetic structure 
     atomic species   magnetization
        Fe           0.312
        Na           0.000
        O            0.000
        P            0.000

     No symmetry found


                                    s                        frac. trans.

      isym =  1     identity                                     

 cryst.   s( 1) = (     1          0          0      )
                  (     0          1          0      )
                  (     0          0          1      )

 cart.    s( 1) = (  1.0000000  0.0000000  0.0000000 )
                  (  0.0000000  1.0000000  0.0000000 )
                  (  0.0000000  0.0000000  1.0000000 )


   Cartesian axes

     site n.     atom                  positions (alat units)
         1           Na  tau(   1) = (   0.5267800   0.0486677   0.2306180  )
         2           Fe  tau(   2) = (   0.2775050   0.4491175   0.4722470  )
         3           Fe  tau(   3) = (   0.2107690   0.1521034   0.2330719  )
         4           Fe  tau(   4) = (   0.7260420   0.1558891   0.0026583  )
         5           Fe  tau(   5) = (   0.7842060   0.4465013   0.2425855  )
         6           P   tau(   6) = (   0.1068460   0.4500707   0.2112516  )
         7           P   tau(   7) = (   0.3892680   0.1546557   0.4489717  )
         8           P   tau(   8) = (   0.8912160   0.1497698   0.2646648  )
         9           P   tau(   9) = (   0.6066990   0.4490321   0.0266572  )
        10           O   tau(  10) = (   0.1320850   0.4514188   0.3572252  )
        11           O   tau(  11) = (   0.3656990   0.1503321   0.1199059  )
        12           O   tau(  12) = (   0.8700850   0.1505992   0.1181826  )
        13           O   tau(  13) = (   0.6284590   0.4532630   0.3551991  )
        14           O   tau(  14) = (   0.4610830   0.4537817   0.0588092  )
        15           O   tau(  15) = (   0.0360890   0.1490431   0.2963752  )
        16           O   tau(  16) = (   0.5370310   0.1529191   0.4233818  )
        17           O   tau(  17) = (   0.9604850   0.4500229   0.1846211  )
        18           O   tau(  18) = (   0.1771920   0.5657067   0.1421834  )
        19           O   tau(  19) = (   0.3254690   0.0375896   0.3758395  )
        20           O   tau(  20) = (   0.8196290   0.2668030   0.3313272  )
        21           O   tau(  21) = (   0.6770690   0.3323102   0.0933780  )
        22           O   tau(  22) = (   0.8166330   0.0353534   0.3310230  )
        23           O   tau(  23) = (   0.6775470   0.5651378   0.0961038  )
        24           O   tau(  24) = (   0.1757850   0.3327434   0.1436119  )
        25           O   tau(  25) = (   0.3204000   0.2709461   0.3823369  )

   Crystallographic axes

     site n.     atom                  positions (cryst. coord.)
         1           Na  tau(   1) = (  0.5267800  0.0814400  0.4851280  )
         2           Fe  tau(   2) = (  0.2775050  0.7515480  0.9934190  )
         3           Fe  tau(   3) = (  0.2107690  0.2545280  0.4902900  )
         4           Fe  tau(   4) = (  0.7260420  0.2608630  0.0055920  )
         5           Fe  tau(   5) = (  0.7842060  0.7471700  0.5103030  )
         6           P   tau(   6) = (  0.1068460  0.7531430  0.4443890  )
         7           P   tau(   7) = (  0.3892680  0.2587990  0.9444570  )
         8           P   tau(   8) = (  0.8912160  0.2506230  0.5567490  )
         9           P   tau(   9) = (  0.6066990  0.7514050  0.0560760  )
        10           O   tau(  10) = (  0.1320850  0.7553990  0.7514590  )
        11           O   tau(  11) = (  0.3656990  0.2515640  0.2522340  )
        12           O   tau(  12) = (  0.8700850  0.2520110  0.2486090  )
        13           O   tau(  13) = (  0.6284590  0.7584850  0.7471970  )
        14           O   tau(  14) = (  0.4610830  0.7593530  0.1237110  )
        15           O   tau(  15) = (  0.0360890  0.2494070  0.6234550  )
        16           O   tau(  16) = (  0.5370310  0.2558930  0.8906260  )
        17           O   tau(  17) = (  0.9604850  0.7530630  0.3883690  )
        18           O   tau(  18) = (  0.1771920  0.9466470  0.2990970  )
        19           O   tau(  19) = (  0.3254690  0.0629020  0.7906160  )
        20           O   tau(  20) = (  0.8196290  0.4464650  0.6969800  )
        21           O   tau(  21) = (  0.6770690  0.5560840  0.1964300  )
        22           O   tau(  22) = (  0.8166330  0.0591600  0.6963400  )
        23           O   tau(  23) = (  0.6775470  0.9456950  0.2021640  )
        24           O   tau(  24) = (  0.1757850  0.5568090  0.3021020  )
        25           O   tau(  25) = (  0.3204000  0.4533980  0.8042840  )

     number of k points=   158  Marzari-Vanderbilt smearing, width (Ry)=  0.0073
                       cart. coord. in units 2pi/alat
        k(    1) = (   0.0000000   0.0000000   0.0000000), wk =   0.0031746
        k(    2) = (   0.0000000   0.0000000   0.2337334), wk =   0.0063492
        k(    3) = (   0.0000000   0.0000000   0.4674667), wk =   0.0063492
        k(    4) = (   0.0000000   0.0000000   0.7012001), wk =   0.0063492
        k(    5) = (   0.0000000   0.0000000   0.9349334), wk =   0.0063492
        k(    6) = (   0.0000000   0.2390555   0.0000000), wk =   0.0063492
        k(    7) = (   0.0000000   0.2390555   0.2337334), wk =   0.0063492
        k(    8) = (   0.0000000   0.2390555   0.4674667), wk =   0.0063492
        k(    9) = (   0.0000000   0.2390555   0.7012001), wk =   0.0063492
        k(   10) = (   0.0000000   0.2390555   0.9349334), wk =   0.0063492
        k(   11) = (   0.0000000   0.4781110   0.0000000), wk =   0.0063492
        k(   12) = (   0.0000000   0.4781110   0.2337334), wk =   0.0063492
        k(   13) = (   0.0000000   0.4781110   0.4674667), wk =   0.0063492
        k(   14) = (   0.0000000   0.4781110   0.7012001), wk =   0.0063492
        k(   15) = (   0.0000000   0.4781110   0.9349334), wk =   0.0063492
        k(   16) = (   0.0000000   0.7171664   0.0000000), wk =   0.0063492
        k(   17) = (   0.0000000   0.7171664   0.2337334), wk =   0.0063492
        k(   18) = (   0.0000000   0.7171664   0.4674667), wk =   0.0063492
        k(   19) = (   0.0000000   0.7171664   0.7012001), wk =   0.0063492
        k(   20) = (   0.0000000   0.7171664   0.9349334), wk =   0.0063492
        k(   21) = (   0.2000000   0.0000000   0.0000000), wk =   0.0063492
        k(   22) = (   0.2000000   0.0000000   0.2337334), wk =   0.0063492
        k(   23) = (   0.2000000   0.0000000   0.4674667), wk =   0.0063492
        k(   24) = (   0.2000000   0.0000000   0.7012001), wk =   0.0063492
        k(   25) = (   0.2000000   0.0000000   0.9349334), wk =   0.0063492
        k(   26) = (   0.2000000   0.2390555   0.0000000), wk =   0.0063492
        k(   27) = (   0.2000000   0.2390555   0.2337334), wk =   0.0063492
        k(   28) = (   0.2000000   0.2390555   0.4674667), wk =   0.0063492
        k(   29) = (   0.2000000   0.2390555   0.7012001), wk =   0.0063492
        k(   30) = (   0.2000000   0.2390555   0.9349334), wk =   0.0063492
        k(   31) = (   0.2000000   0.4781110   0.0000000), wk =   0.0063492
        k(   32) = (   0.2000000   0.4781110   0.2337334), wk =   0.0063492
        k(   33) = (   0.2000000   0.4781110   0.4674667), wk =   0.0063492
        k(   34) = (   0.2000000   0.4781110   0.7012001), wk =   0.0063492
        k(   35) = (   0.2000000   0.4781110   0.9349334), wk =   0.0063492
        k(   36) = (   0.2000000   0.7171664   0.0000000), wk =   0.0063492
        k(   37) = (   0.2000000   0.7171664   0.2337334), wk =   0.0063492
        k(   38) = (   0.2000000   0.7171664   0.4674667), wk =   0.0063492
        k(   39) = (   0.2000000   0.7171664   0.7012001), wk =   0.0063492
        k(   40) = (   0.2000000   0.7171664   0.9349334), wk =   0.0063492
        k(   41) = (   0.4000000   0.0000000   0.0000000), wk =   0.0063492
        k(   42) = (   0.4000000   0.0000000   0.2337334), wk =   0.0063492
        k(   43) = (   0.4000000   0.0000000   0.4674667), wk =   0.0063492
        k(   44) = (   0.4000000   0.0000000   0.7012001), wk =   0.0063492
        k(   45) = (   0.4000000   0.0000000   0.9349334), wk =   0.0063492
        k(   46) = (   0.4000000   0.2390555   0.0000000), wk =   0.0063492
        k(   47) = (   0.4000000   0.2390555   0.2337334), wk =   0.0063492
        k(   48) = (   0.4000000   0.2390555   0.4674667), wk =   0.0063492
        k(   49) = (   0.4000000   0.2390555   0.7012001), wk =   0.0063492
        k(   50) = (   0.4000000   0.2390555   0.9349334), wk =   0.0063492
        k(   51) = (   0.4000000   0.4781110   0.0000000), wk =   0.0063492
        k(   52) = (   0.4000000   0.4781110   0.2337334), wk =   0.0063492
        k(   53) = (   0.4000000   0.4781110   0.4674667), wk =   0.0063492
        k(   54) = (   0.4000000   0.4781110   0.7012001), wk =   0.0063492
        k(   55) = (   0.4000000   0.4781110   0.9349334), wk =   0.0063492
        k(   56) = (   0.4000000   0.7171664   0.0000000), wk =   0.0063492
        k(   57) = (   0.4000000   0.7171664   0.2337334), wk =   0.0063492
        k(   58) = (   0.4000000   0.7171664   0.4674667), wk =   0.0063492
        k(   59) = (   0.4000000   0.7171664   0.7012001), wk =   0.0063492
        k(   60) = (   0.4000000   0.7171664   0.9349334), wk =   0.0063492
        k(   61) = (   0.0000000  -0.2390555   0.2337334), wk =   0.0063492
        k(   62) = (   0.0000000  -0.2390555   0.4674667), wk =   0.0063492
        k(   63) = (   0.0000000  -0.2390555   0.7012001), wk =   0.0063492
        k(   64) = (   0.0000000  -0.2390555   0.9349334), wk =   0.0063492
        k(   65) = (   0.0000000  -0.4781110   0.2337334), wk =   0.0063492
        k(   66) = (   0.0000000  -0.4781110   0.4674667), wk =   0.0063492
        k(   67) = (   0.0000000  -0.4781110   0.7012001), wk =   0.0063492
        k(   68) = (   0.0000000  -0.4781110   0.9349334), wk =   0.0063492
        k(   69) = (   0.0000000  -0.7171664   0.2337334), wk =   0.0063492
        k(   70) = (   0.0000000  -0.7171664   0.4674667), wk =   0.0063492
        k(   71) = (   0.0000000  -0.7171664   0.7012001), wk =   0.0063492
        k(   72) = (   0.0000000  -0.7171664   0.9349334), wk =   0.0063492
        k(   73) = (  -0.2000000   0.0000000   0.2337334), wk =   0.0063492
        k(   74) = (  -0.2000000   0.0000000   0.4674667), wk =   0.0063492
        k(   75) = (  -0.2000000   0.0000000   0.7012001), wk =   0.0063492
        k(   76) = (  -0.2000000   0.0000000   0.9349334), wk =   0.0063492
        k(   77) = (  -0.2000000   0.2390555   0.0000000), wk =   0.0063492
        k(   78) = (  -0.2000000  -0.2390555   0.2337334), wk =   0.0063492
        k(   79) = (  -0.2000000   0.2390555  -0.2337334), wk =   0.0063492
        k(   80) = (   0.2000000  -0.2390555  -0.2337334), wk =   0.0063492
        k(   81) = (  -0.2000000  -0.2390555   0.4674667), wk =   0.0063492
        k(   82) = (  -0.2000000   0.2390555  -0.4674667), wk =   0.0063492
        k(   83) = (   0.2000000  -0.2390555  -0.4674667), wk =   0.0063492
        k(   84) = (  -0.2000000  -0.2390555   0.7012001), wk =   0.0063492
        k(   85) = (  -0.2000000   0.2390555  -0.7012001), wk =   0.0063492
        k(   86) = (   0.2000000  -0.2390555  -0.7012001), wk =   0.0063492
        k(   87) = (  -0.2000000  -0.2390555   0.9349334), wk =   0.0063492
        k(   88) = (  -0.2000000   0.2390555  -0.9349334), wk =   0.0063492
        k(   89) = (   0.2000000  -0.2390555  -0.9349334), wk =   0.0063492
        k(   90) = (  -0.2000000   0.4781110   0.0000000), wk =   0.0063492
        k(   91) = (  -0.2000000  -0.4781110   0.2337334), wk =   0.0063492
        k(   92) = (  -0.2000000   0.4781110  -0.2337334), wk =   0.0063492
        k(   93) = (   0.2000000  -0.4781110  -0.2337334), wk =   0.0063492
        k(   94) = (  -0.2000000  -0.4781110   0.4674667), wk =   0.0063492
        k(   95) = (  -0.2000000   0.4781110  -0.4674667), wk =   0.0063492
        k(   96) = (   0.2000000  -0.4781110  -0.4674667), wk =   0.0063492
        k(   97) = (  -0.2000000  -0.4781110   0.7012001), wk =   0.0063492
        k(   98) = (  -0.2000000   0.4781110  -0.7012001), wk =   0.0063492
        k(   99) = (   0.2000000  -0.4781110  -0.7012001), wk =   0.0063492
        k(  100) = (  -0.2000000  -0.4781110   0.9349334), wk =   0.0063492
        k(  101) = (  -0.2000000   0.4781110  -0.9349334), wk =   0.0063492
        k(  102) = (   0.2000000  -0.4781110  -0.9349334), wk =   0.0063492
        k(  103) = (  -0.2000000   0.7171664   0.0000000), wk =   0.0063492
        k(  104) = (  -0.2000000  -0.7171664   0.2337334), wk =   0.0063492
        k(  105) = (  -0.2000000   0.7171664  -0.2337334), wk =   0.0063492
        k(  106) = (   0.2000000  -0.7171664  -0.2337334), wk =   0.0063492
        k(  107) = (  -0.2000000  -0.7171664   0.4674667), wk =   0.0063492
        k(  108) = (  -0.2000000   0.7171664  -0.4674667), wk =   0.0063492
        k(  109) = (   0.2000000  -0.7171664  -0.4674667), wk =   0.0063492
        k(  110) = (  -0.2000000  -0.7171664   0.7012001), wk =   0.0063492
        k(  111) = (  -0.2000000   0.7171664  -0.7012001), wk =   0.0063492
        k(  112) = (   0.2000000  -0.7171664  -0.7012001), wk =   0.0063492
        k(  113) = (  -0.2000000  -0.7171664   0.9349334), wk =   0.0063492
        k(  114) = (  -0.2000000   0.7171664  -0.9349334), wk =   0.0063492
        k(  115) = (   0.2000000  -0.7171664  -0.9349334), wk =   0.0063492
        k(  116) = (  -0.4000000   0.0000000   0.2337334), wk =   0.0063492
        k(  117) = (  -0.4000000   0.0000000   0.4674667), wk =   0.0063492
        k(  118) = (  -0.4000000   0.0000000   0.7012001), wk =   0.0063492
        k(  119) = (  -0.4000000   0.0000000   0.9349334), wk =   0.0063492
        k(  120) = (  -0.4000000   0.2390555   0.0000000), wk =   0.0063492
        k(  121) = (  -0.4000000  -0.2390555   0.2337334), wk =   0.0063492
        k(  122) = (  -0.4000000   0.2390555  -0.2337334), wk =   0.0063492
        k(  123) = (   0.4000000  -0.2390555  -0.2337334), wk =   0.0063492
        k(  124) = (  -0.4000000  -0.2390555   0.4674667), wk =   0.0063492
        k(  125) = (  -0.4000000   0.2390555  -0.4674667), wk =   0.0063492
        k(  126) = (   0.4000000  -0.2390555  -0.4674667), wk =   0.0063492
        k(  127) = (  -0.4000000  -0.2390555   0.7012001), wk =   0.0063492
        k(  128) = (  -0.4000000   0.2390555  -0.7012001), wk =   0.0063492
        k(  129) = (   0.4000000  -0.2390555  -0.7012001), wk =   0.0063492
        k(  130) = (  -0.4000000  -0.2390555   0.9349334), wk =   0.0063492
        k(  131) = (  -0.4000000   0.2390555  -0.9349334), wk =   0.0063492
        k(  132) = (   0.4000000  -0.2390555  -0.9349334), wk =   0.0063492
        k(  133) = (  -0.4000000   0.4781110   0.0000000), wk =   0.0063492
        k(  134) = (  -0.4000000  -0.4781110   0.2337334), wk =   0.0063492
        k(  135) = (  -0.4000000   0.4781110  -0.2337334), wk =   0.0063492
        k(  136) = (   0.4000000  -0.4781110  -0.2337334), wk =   0.0063492
        k(  137) = (  -0.4000000  -0.4781110   0.4674667), wk =   0.0063492
        k(  138) = (  -0.4000000   0.4781110  -0.4674667), wk =   0.0063492
        k(  139) = (   0.4000000  -0.4781110  -0.4674667), wk =   0.0063492
        k(  140) = (  -0.4000000  -0.4781110   0.7012001), wk =   0.0063492
        k(  141) = (  -0.4000000   0.4781110  -0.7012001), wk =   0.0063492
        k(  142) = (   0.4000000  -0.4781110  -0.7012001), wk =   0.0063492
        k(  143) = (  -0.4000000  -0.4781110   0.9349334), wk =   0.0063492
        k(  144) = (  -0.4000000   0.4781110  -0.9349334), wk =   0.0063492
        k(  145) = (   0.4000000  -0.4781110  -0.9349334), wk =   0.0063492
        k(  146) = (  -0.4000000   0.7171664   0.0000000), wk =   0.0063492
        k(  147) = (  -0.4000000  -0.7171664   0.2337334), wk =   0.0063492
        k(  148) = (  -0.4000000   0.7171664  -0.2337334), wk =   0.0063492
        k(  149) = (   0.4000000  -0.7171664  -0.2337334), wk =   0.0063492
        k(  150) = (  -0.4000000  -0.7171664   0.4674667), wk =   0.0063492
        k(  151) = (  -0.4000000   0.7171664  -0.4674667), wk =   0.0063492
        k(  152) = (   0.4000000  -0.7171664  -0.4674667), wk =   0.0063492
        k(  153) = (  -0.4000000  -0.7171664   0.7012001), wk =   0.0063492
        k(  154) = (  -0.4000000   0.7171664  -0.7012001), wk =   0.0063492
        k(  155) = (   0.4000000  -0.7171664  -0.7012001), wk =   0.0063492
        k(  156) = (  -0.4000000  -0.7171664   0.9349334), wk =   0.0063492
        k(  157) = (  -0.4000000   0.7171664  -0.9349334), wk =   0.0063492
        k(  158) = (   0.4000000  -0.7171664  -0.9349334), wk =   0.0063492

                       cryst. coord.
        k(    1) = (   0.0000000   0.0000000   0.0000000), wk =   0.0031746
        k(    2) = (   0.0000000   0.0000000   0.1111111), wk =   0.0063492
        k(    3) = (   0.0000000   0.0000000   0.2222222), wk =   0.0063492
        k(    4) = (   0.0000000   0.0000000   0.3333333), wk =   0.0063492
        k(    5) = (   0.0000000   0.0000000   0.4444444), wk =   0.0063492
        k(    6) = (   0.0000000   0.1428571   0.0000000), wk =   0.0063492
        k(    7) = (   0.0000000   0.1428571   0.1111111), wk =   0.0063492
        k(    8) = (   0.0000000   0.1428571   0.2222222), wk =   0.0063492
        k(    9) = (   0.0000000   0.1428571   0.3333333), wk =   0.0063492
        k(   10) = (   0.0000000   0.1428571   0.4444444), wk =   0.0063492
        k(   11) = (   0.0000000   0.2857143   0.0000000), wk =   0.0063492
        k(   12) = (   0.0000000   0.2857143   0.1111111), wk =   0.0063492
        k(   13) = (   0.0000000   0.2857143   0.2222222), wk =   0.0063492
        k(   14) = (   0.0000000   0.2857143   0.3333333), wk =   0.0063492
        k(   15) = (   0.0000000   0.2857143   0.4444444), wk =   0.0063492
        k(   16) = (   0.0000000   0.4285714   0.0000000), wk =   0.0063492
        k(   17) = (   0.0000000   0.4285714   0.1111111), wk =   0.0063492
        k(   18) = (   0.0000000   0.4285714   0.2222222), wk =   0.0063492
        k(   19) = (   0.0000000   0.4285714   0.3333333), wk =   0.0063492
        k(   20) = (   0.0000000   0.4285714   0.4444444), wk =   0.0063492
        k(   21) = (   0.2000000   0.0000000   0.0000000), wk =   0.0063492
        k(   22) = (   0.2000000   0.0000000   0.1111111), wk =   0.0063492
        k(   23) = (   0.2000000   0.0000000   0.2222222), wk =   0.0063492
        k(   24) = (   0.2000000   0.0000000   0.3333333), wk =   0.0063492
        k(   25) = (   0.2000000   0.0000000   0.4444444), wk =   0.0063492
        k(   26) = (   0.2000000   0.1428571   0.0000000), wk =   0.0063492
        k(   27) = (   0.2000000   0.1428571   0.1111111), wk =   0.0063492
        k(   28) = (   0.2000000   0.1428571   0.2222222), wk =   0.0063492
        k(   29) = (   0.2000000   0.1428571   0.3333333), wk =   0.0063492
        k(   30) = (   0.2000000   0.1428571   0.4444444), wk =   0.0063492
        k(   31) = (   0.2000000   0.2857143   0.0000000), wk =   0.0063492
        k(   32) = (   0.2000000   0.2857143   0.1111111), wk =   0.0063492
        k(   33) = (   0.2000000   0.2857143   0.2222222), wk =   0.0063492
        k(   34) = (   0.2000000   0.2857143   0.3333333), wk =   0.0063492
        k(   35) = (   0.2000000   0.2857143   0.4444444), wk =   0.0063492
        k(   36) = (   0.2000000   0.4285714   0.0000000), wk =   0.0063492
        k(   37) = (   0.2000000   0.4285714   0.1111111), wk =   0.0063492
        k(   38) = (   0.2000000   0.4285714   0.2222222), wk =   0.0063492
        k(   39) = (   0.2000000   0.4285714   0.3333333), wk =   0.0063492
        k(   40) = (   0.2000000   0.4285714   0.4444444), wk =   0.0063492
        k(   41) = (   0.4000000   0.0000000   0.0000000), wk =   0.0063492
        k(   42) = (   0.4000000   0.0000000   0.1111111), wk =   0.0063492
        k(   43) = (   0.4000000   0.0000000   0.2222222), wk =   0.0063492
        k(   44) = (   0.4000000   0.0000000   0.3333333), wk =   0.0063492
        k(   45) = (   0.4000000   0.0000000   0.4444444), wk =   0.0063492
        k(   46) = (   0.4000000   0.1428571   0.0000000), wk =   0.0063492
        k(   47) = (   0.4000000   0.1428571   0.1111111), wk =   0.0063492
        k(   48) = (   0.4000000   0.1428571   0.2222222), wk =   0.0063492
        k(   49) = (   0.4000000   0.1428571   0.3333333), wk =   0.0063492
        k(   50) = (   0.4000000   0.1428571   0.4444444), wk =   0.0063492
        k(   51) = (   0.4000000   0.2857143   0.0000000), wk =   0.0063492
        k(   52) = (   0.4000000   0.2857143   0.1111111), wk =   0.0063492
        k(   53) = (   0.4000000   0.2857143   0.2222222), wk =   0.0063492
        k(   54) = (   0.4000000   0.2857143   0.3333333), wk =   0.0063492
        k(   55) = (   0.4000000   0.2857143   0.4444444), wk =   0.0063492
        k(   56) = (   0.4000000   0.4285714   0.0000000), wk =   0.0063492
        k(   57) = (   0.4000000   0.4285714   0.1111111), wk =   0.0063492
        k(   58) = (   0.4000000   0.4285714   0.2222222), wk =   0.0063492
        k(   59) = (   0.4000000   0.4285714   0.3333333), wk =   0.0063492
        k(   60) = (   0.4000000   0.4285714   0.4444444), wk =   0.0063492
        k(   61) = (   0.0000000  -0.1428571   0.1111111), wk =   0.0063492
        k(   62) = (   0.0000000  -0.1428571   0.2222222), wk =   0.0063492
        k(   63) = (   0.0000000  -0.1428571   0.3333333), wk =   0.0063492
        k(   64) = (   0.0000000  -0.1428571   0.4444444), wk =   0.0063492
        k(   65) = (   0.0000000  -0.2857143   0.1111111), wk =   0.0063492
        k(   66) = (   0.0000000  -0.2857143   0.2222222), wk =   0.0063492
        k(   67) = (   0.0000000  -0.2857143   0.3333333), wk =   0.0063492
        k(   68) = (   0.0000000  -0.2857143   0.4444444), wk =   0.0063492
        k(   69) = (   0.0000000  -0.4285714   0.1111111), wk =   0.0063492
        k(   70) = (   0.0000000  -0.4285714   0.2222222), wk =   0.0063492
        k(   71) = (   0.0000000  -0.4285714   0.3333333), wk =   0.0063492
        k(   72) = (   0.0000000  -0.4285714   0.4444444), wk =   0.0063492
        k(   73) = (  -0.2000000   0.0000000   0.1111111), wk =   0.0063492
        k(   74) = (  -0.2000000   0.0000000   0.2222222), wk =   0.0063492
        k(   75) = (  -0.2000000   0.0000000   0.3333333), wk =   0.0063492
        k(   76) = (  -0.2000000   0.0000000   0.4444444), wk =   0.0063492
        k(   77) = (  -0.2000000   0.1428571   0.0000000), wk =   0.0063492
        k(   78) = (  -0.2000000  -0.1428571   0.1111111), wk =   0.0063492
        k(   79) = (  -0.2000000   0.1428571  -0.1111111), wk =   0.0063492
        k(   80) = (   0.2000000  -0.1428571  -0.1111111), wk =   0.0063492
        k(   81) = (  -0.2000000  -0.1428571   0.2222222), wk =   0.0063492
        k(   82) = (  -0.2000000   0.1428571  -0.2222222), wk =   0.0063492
        k(   83) = (   0.2000000  -0.1428571  -0.2222222), wk =   0.0063492
        k(   84) = (  -0.2000000  -0.1428571   0.3333333), wk =   0.0063492
        k(   85) = (  -0.2000000   0.1428571  -0.3333333), wk =   0.0063492
        k(   86) = (   0.2000000  -0.1428571  -0.3333333), wk =   0.0063492
        k(   87) = (  -0.2000000  -0.1428571   0.4444444), wk =   0.0063492
        k(   88) = (  -0.2000000   0.1428571  -0.4444444), wk =   0.0063492
        k(   89) = (   0.2000000  -0.1428571  -0.4444444), wk =   0.0063492
        k(   90) = (  -0.2000000   0.2857143   0.0000000), wk =   0.0063492
        k(   91) = (  -0.2000000  -0.2857143   0.1111111), wk =   0.0063492
        k(   92) = (  -0.2000000   0.2857143  -0.1111111), wk =   0.0063492
        k(   93) = (   0.2000000  -0.2857143  -0.1111111), wk =   0.0063492
        k(   94) = (  -0.2000000  -0.2857143   0.2222222), wk =   0.0063492
        k(   95) = (  -0.2000000   0.2857143  -0.2222222), wk =   0.0063492
        k(   96) = (   0.2000000  -0.2857143  -0.2222222), wk =   0.0063492
        k(   97) = (  -0.2000000  -0.2857143   0.3333333), wk =   0.0063492
        k(   98) = (  -0.2000000   0.2857143  -0.3333333), wk =   0.0063492
        k(   99) = (   0.2000000  -0.2857143  -0.3333333), wk =   0.0063492
        k(  100) = (  -0.2000000  -0.2857143   0.4444444), wk =   0.0063492
        k(  101) = (  -0.2000000   0.2857143  -0.4444444), wk =   0.0063492
        k(  102) = (   0.2000000  -0.2857143  -0.4444444), wk =   0.0063492
        k(  103) = (  -0.2000000   0.4285714   0.0000000), wk =   0.0063492
        k(  104) = (  -0.2000000  -0.4285714   0.1111111), wk =   0.0063492
        k(  105) = (  -0.2000000   0.4285714  -0.1111111), wk =   0.0063492
        k(  106) = (   0.2000000  -0.4285714  -0.1111111), wk =   0.0063492
        k(  107) = (  -0.2000000  -0.4285714   0.2222222), wk =   0.0063492
        k(  108) = (  -0.2000000   0.4285714  -0.2222222), wk =   0.0063492
        k(  109) = (   0.2000000  -0.4285714  -0.2222222), wk =   0.0063492
        k(  110) = (  -0.2000000  -0.4285714   0.3333333), wk =   0.0063492
        k(  111) = (  -0.2000000   0.4285714  -0.3333333), wk =   0.0063492
        k(  112) = (   0.2000000  -0.4285714  -0.3333333), wk =   0.0063492
        k(  113) = (  -0.2000000  -0.4285714   0.4444444), wk =   0.0063492
        k(  114) = (  -0.2000000   0.4285714  -0.4444444), wk =   0.0063492
        k(  115) = (   0.2000000  -0.4285714  -0.4444444), wk =   0.0063492
        k(  116) = (  -0.4000000   0.0000000   0.1111111), wk =   0.0063492
        k(  117) = (  -0.4000000   0.0000000   0.2222222), wk =   0.0063492
        k(  118) = (  -0.4000000   0.0000000   0.3333333), wk =   0.0063492
        k(  119) = (  -0.4000000   0.0000000   0.4444444), wk =   0.0063492
        k(  120) = (  -0.4000000   0.1428571   0.0000000), wk =   0.0063492
        k(  121) = (  -0.4000000  -0.1428571   0.1111111), wk =   0.0063492
        k(  122) = (  -0.4000000   0.1428571  -0.1111111), wk =   0.0063492
        k(  123) = (   0.4000000  -0.1428571  -0.1111111), wk =   0.0063492
        k(  124) = (  -0.4000000  -0.1428571   0.2222222), wk =   0.0063492
        k(  125) = (  -0.4000000   0.1428571  -0.2222222), wk =   0.0063492
        k(  126) = (   0.4000000  -0.1428571  -0.2222222), wk =   0.0063492
        k(  127) = (  -0.4000000  -0.1428571   0.3333333), wk =   0.0063492
        k(  128) = (  -0.4000000   0.1428571  -0.3333333), wk =   0.0063492
        k(  129) = (   0.4000000  -0.1428571  -0.3333333), wk =   0.0063492
        k(  130) = (  -0.4000000  -0.1428571   0.4444444), wk =   0.0063492
        k(  131) = (  -0.4000000   0.1428571  -0.4444444), wk =   0.0063492
        k(  132) = (   0.4000000  -0.1428571  -0.4444444), wk =   0.0063492
        k(  133) = (  -0.4000000   0.2857143   0.0000000), wk =   0.0063492
        k(  134) = (  -0.4000000  -0.2857143   0.1111111), wk =   0.0063492
        k(  135) = (  -0.4000000   0.2857143  -0.1111111), wk =   0.0063492
        k(  136) = (   0.4000000  -0.2857143  -0.1111111), wk =   0.0063492
        k(  137) = (  -0.4000000  -0.2857143   0.2222222), wk =   0.0063492
        k(  138) = (  -0.4000000   0.2857143  -0.2222222), wk =   0.0063492
        k(  139) = (   0.4000000  -0.2857143  -0.2222222), wk =   0.0063492
        k(  140) = (  -0.4000000  -0.2857143   0.3333333), wk =   0.0063492
        k(  141) = (  -0.4000000   0.2857143  -0.3333333), wk =   0.0063492
        k(  142) = (   0.4000000  -0.2857143  -0.3333333), wk =   0.0063492
        k(  143) = (  -0.4000000  -0.2857143   0.4444444), wk =   0.0063492
        k(  144) = (  -0.4000000   0.2857143  -0.4444444), wk =   0.0063492
        k(  145) = (   0.4000000  -0.2857143  -0.4444444), wk =   0.0063492
        k(  146) = (  -0.4000000   0.4285714   0.0000000), wk =   0.0063492
        k(  147) = (  -0.4000000  -0.4285714   0.1111111), wk =   0.0063492
        k(  148) = (  -0.4000000   0.4285714  -0.1111111), wk =   0.0063492
        k(  149) = (   0.4000000  -0.4285714  -0.1111111), wk =   0.0063492
        k(  150) = (  -0.4000000  -0.4285714   0.2222222), wk =   0.0063492
        k(  151) = (  -0.4000000   0.4285714  -0.2222222), wk =   0.0063492
        k(  152) = (   0.4000000  -0.4285714  -0.2222222), wk =   0.0063492
        k(  153) = (  -0.4000000  -0.4285714   0.3333333), wk =   0.0063492
        k(  154) = (  -0.4000000   0.4285714  -0.3333333), wk =   0.0063492
        k(  155) = (   0.4000000  -0.4285714  -0.3333333), wk =   0.0063492
        k(  156) = (  -0.4000000  -0.4285714   0.4444444), wk =   0.0063492
        k(  157) = (  -0.4000000   0.4285714  -0.4444444), wk =   0.0063492
        k(  158) = (   0.4000000  -0.4285714  -0.4444444), wk =   0.0063492

     Dense  grid:  1428783 G-vectors     FFT dimensions: ( 216, 128, 108)

     Smooth grid:   322201 G-vectors     FFT dimensions: ( 135,  80,  64)

     Dynamical RAM for                 wfc:       4.37 MB

     Dynamical RAM for     wfc (w. buffer):    1386.83 MB

     Dynamical RAM for           str. fact:       5.45 MB

     Dynamical RAM for           local pot:       0.00 MB

     Dynamical RAM for          nlocal pot:      10.75 MB

     Dynamical RAM for                qrad:      10.54 MB

     Dynamical RAM for          rho,v,vnew:      17.03 MB

     Dynamical RAM for               rhoin:       5.68 MB

     Dynamical RAM for            rho*nmix:      43.60 MB

     Dynamical RAM for           G-vectors:       5.26 MB

     Dynamical RAM for          h,s,v(r/c):       2.38 MB

     Dynamical RAM for          <psi|beta>:       0.49 MB

     Dynamical RAM for                 psi:       8.75 MB

     Dynamical RAM for                hpsi:       8.75 MB

     Dynamical RAM for                spsi:       8.75 MB

     Dynamical RAM for      wfcinit/wfcrot:      10.95 MB

     Dynamical RAM for           addusdens:     276.61 MB

     Dynamical RAM for          addusforce:     317.61 MB

     Dynamical RAM for         addusstress:     275.93 MB

     Estimated static dynamical RAM per process >       1.47 GB

     Estimated max dynamical RAM per process >       1.78 GB

     Estimated total dynamical RAM >      28.41 GB

     Check: negative core charge=   -0.000003
     Generating pointlists ...
     new r_m :   0.0762 (alat units)  1.5484 (a.u.) for type    1
     new r_m :   0.0898 (alat units)  1.8250 (a.u.) for type    2
     new r_m :   0.0611 (alat units)  1.2406 (a.u.) for type    3
     new r_m :   0.0611 (alat units)  1.2406 (a.u.) for type    4

     Initial potential from superposition of free atoms

     starting charge  188.99132, renormalised to  189.00000
     Starting wfcs are  137 randomized atomic wfcs
     Checking if some PAW data can be deallocated... 
       PAW data deallocated on   13 nodes for type:  1
       PAW data deallocated on    4 nodes for type:  3

     total cpu time spent up to now is      213.0 secs

     Self-consistent Calculation

     iteration #  1     ecut=   100.00 Ry     beta= 0.40
     Davidson diagonalization with overlap
     ethr =  1.00E-02,  avg # of iterations =  2.8

     negative rho (up, down):  0.000E+00 5.762E-05

     total cpu time spent up to now is      794.3 secs

     total energy              =   -2123.69531999 Ry
     estimated scf accuracy    <       7.09179983 Ry

     total magnetization       =    19.00 Bohr mag/cell
     absolute magnetization    =    19.00 Bohr mag/cell

     iteration #  2     ecut=   100.00 Ry     beta= 0.40
     Davidson diagonalization with overlap
     ethr =  3.75E-03,  avg # of iterations =  2.0

     negative rho (up, down):  0.000E+00 2.607E-05

     total cpu time spent up to now is     1366.3 secs

     total energy              =   -2120.53383256 Ry
     estimated scf accuracy    <      43.56121877 Ry

     total magnetization       =     7.25 Bohr mag/cell
     absolute magnetization    =     8.54 Bohr mag/cell

     iteration #  3     ecut=   100.00 Ry     beta= 0.40
     Davidson diagonalization with overlap
     ethr =  3.75E-03,  avg # of iterations =  3.1

     negative rho (up, down):  0.000E+00 1.386E-05

     total cpu time spent up to now is     1871.1 secs

     total energy              =   -2122.89731985 Ry
     estimated scf accuracy    <      72.08211049 Ry

     total magnetization       =     1.78 Bohr mag/cell
     absolute magnetization    =     5.86 Bohr mag/cell

     iteration #  4     ecut=   100.00 Ry     beta= 0.40
     Davidson diagonalization with overlap
     ethr =  3.75E-03,  avg # of iterations =  1.5

     negative rho (up, down):  0.000E+00 1.188E-05

     total cpu time spent up to now is     2335.0 secs

     total energy              =   -2124.94926680 Ry
     estimated scf accuracy    <      21.42082080 Ry

     total magnetization       =    11.83 Bohr mag/cell
     absolute magnetization    =    12.00 Bohr mag/cell

     iteration #  5     ecut=   100.00 Ry     beta= 0.40
     Davidson diagonalization with overlap
     ethr =  3.75E-03,  avg # of iterations =  1.6

     negative rho (up, down):  0.000E+00 3.914E-05

     total cpu time spent up to now is     2801.9 secs

     total energy              =   -2125.56852703 Ry
     estimated scf accuracy    <       6.79980274 Ry

     total magnetization       =    15.75 Bohr mag/cell
     absolute magnetization    =    15.86 Bohr mag/cell

     iteration #  6     ecut=   100.00 Ry     beta= 0.40
     Davidson diagonalization with overlap
     ethr =  3.60E-03,  avg # of iterations =  1.5

     negative rho (up, down):  0.000E+00 1.589E-04

     total cpu time spent up to now is     3265.8 secs

     total energy              =   -2125.99797014 Ry
     estimated scf accuracy    <       1.27834449 Ry

     total magnetization       =    19.04 Bohr mag/cell
     absolute magnetization    =    19.04 Bohr mag/cell

     iteration #  7     ecut=   100.00 Ry     beta= 0.40
     Davidson diagonalization with overlap
     ethr =  6.76E-04,  avg # of iterations =  1.0

     negative rho (up, down):  0.000E+00 2.805E-04

     total cpu time spent up to now is     3712.7 secs

     total energy              =   -2125.99449598 Ry
     estimated scf accuracy    <       0.51914972 Ry

     total magnetization       =    19.00 Bohr mag/cell
     absolute magnetization    =    19.00 Bohr mag/cell

     iteration #  8     ecut=   100.00 Ry     beta= 0.40
     Davidson diagonalization with overlap
     ethr =  2.75E-04,  avg # of iterations =  1.7

     negative rho (up, down):  0.000E+00 4.583E-04

     total cpu time spent up to now is     4175.8 secs

     total energy              =   -2125.97800258 Ry
     estimated scf accuracy    <       0.53994833 Ry

     total magnetization       =    19.00 Bohr mag/cell
     absolute magnetization    =    19.00 Bohr mag/cell

     iteration #  9     ecut=   100.00 Ry     beta= 0.40
     Davidson diagonalization with overlap
     ethr =  2.75E-04,  avg # of iterations =  1.2

     negative rho (up, down):  0.000E+00 8.457E-04

     total cpu time spent up to now is     4628.3 secs

     total energy              =   -2125.98632121 Ry
     estimated scf accuracy    <       0.19609265 Ry

     total magnetization       =    19.00 Bohr mag/cell
     absolute magnetization    =    19.01 Bohr mag/cell

     iteration # 10     ecut=   100.00 Ry     beta= 0.40
     Davidson diagonalization with overlap
     c_bands:  1 eigenvalues not converged
     c_bands:  1 eigenvalues not converged
     c_bands:  1 eigenvalues not converged
     c_bands:  1 eigenvalues not converged
     c_bands:  1 eigenvalues not converged
     c_bands:  1 eigenvalues not converged
     c_bands:  1 eigenvalues not converged
     c_bands:  1 eigenvalues not converged
     c_bands:  1 eigenvalues not converged
     c_bands:  1 eigenvalues not converged
     c_bands:  1 eigenvalues not converged
     c_bands:  1 eigenvalues not converged
     c_bands:  2 eigenvalues not converged
     c_bands:  1 eigenvalues not converged
     c_bands:  1 eigenvalues not converged
     ethr =  1.04E-04,  avg # of iterations = 11.7

     negative rho (up, down):  0.000E+00 8.705E-04

     total cpu time spent up to now is     5232.1 secs

     total energy              =   -2125.99919903 Ry
     estimated scf accuracy    <       0.04547040 Ry

     total magnetization       =    19.00 Bohr mag/cell
     absolute magnetization    =    19.02 Bohr mag/cell

     iteration # 11     ecut=   100.00 Ry     beta= 0.40
     Davidson diagonalization with overlap
     c_bands:  1 eigenvalues not converged
     c_bands:  1 eigenvalues not converged
     c_bands:  1 eigenvalues not converged
     c_bands:  1 eigenvalues not converged
     c_bands:  1 eigenvalues not converged
     c_bands:  1 eigenvalues not converged
     c_bands:  1 eigenvalues not converged
     c_bands:  1 eigenvalues not converged
     c_bands:  1 eigenvalues not converged
     c_bands:  1 eigenvalues not converged
     c_bands:  1 eigenvalues not converged
     c_bands:  1 eigenvalues not converged
     c_bands:  1 eigenvalues not converged
     c_bands:  1 eigenvalues not converged
     c_bands:  1 eigenvalues not converged
     ethr =  2.41E-05,  avg # of iterations = 11.7

     negative rho (up, down):  0.000E+00 9.834E-04

     total cpu time spent up to now is     5858.4 secs

     total energy              =   -2126.00228468 Ry
     estimated scf accuracy    <       0.01705119 Ry

     total magnetization       =    19.00 Bohr mag/cell
     absolute magnetization    =    19.02 Bohr mag/cell

     iteration # 12     ecut=   100.00 Ry     beta= 0.40
     Davidson diagonalization with overlap
     c_bands:  1 eigenvalues not converged
     c_bands:  1 eigenvalues not converged
     c_bands:  1 eigenvalues not converged
     c_bands:  1 eigenvalues not converged
     c_bands:  1 eigenvalues not converged
     c_bands:  1 eigenvalues not converged
     c_bands:  1 eigenvalues not converged
     c_bands:  1 eigenvalues not converged
     c_bands:  1 eigenvalues not converged
     c_bands:  1 eigenvalues not converged
     c_bands:  1 eigenvalues not converged
     c_bands:  1 eigenvalues not converged
     c_bands:  1 eigenvalues not converged
     c_bands:  1 eigenvalues not converged
     c_bands:  1 eigenvalues not converged
     c_bands:  1 eigenvalues not converged
     c_bands:  2 eigenvalues not converged
     c_bands:  2 eigenvalues not converged
     ethr =  9.02E-06,  avg # of iterations =  8.1

     negative rho (up, down):  0.000E+00 1.017E-03

     total cpu time spent up to now is     6430.8 secs

     total energy              =   -2126.00492153 Ry
     estimated scf accuracy    <       0.05929939 Ry

     total magnetization       =    19.00 Bohr mag/cell
     absolute magnetization    =    19.03 Bohr mag/cell

     iteration # 13     ecut=   100.00 Ry     beta= 0.40
     Davidson diagonalization with overlap
     ethr =  9.02E-06,  avg # of iterations =  1.2

     negative rho (up, down):  0.000E+00 1.030E-03

     total cpu time spent up to now is     6880.1 secs

     total energy              =   -2126.00586968 Ry
     estimated scf accuracy    <       0.00948697 Ry

     total magnetization       =    19.00 Bohr mag/cell
     absolute magnetization    =    19.05 Bohr mag/cell

     iteration # 14     ecut=   100.00 Ry     beta= 0.40
     Davidson diagonalization with overlap
     ethr =  5.02E-06,  avg # of iterations =  1.5

     negative rho (up, down):  0.000E+00 1.025E-03

     total cpu time spent up to now is     7339.8 secs

     total energy              =   -2126.00625506 Ry
     estimated scf accuracy    <       0.00065101 Ry

     total magnetization       =    19.00 Bohr mag/cell
     absolute magnetization    =    19.05 Bohr mag/cell

     iteration # 15     ecut=   100.00 Ry     beta= 0.40
     Davidson diagonalization with overlap
     c_bands:  2 eigenvalues not converged
     c_bands:  1 eigenvalues not converged
     c_bands:  1 eigenvalues not converged
     c_bands:  1 eigenvalues not converged
     c_bands:  1 eigenvalues not converged
     c_bands:  1 eigenvalues not converged
     c_bands:  1 eigenvalues not converged
     c_bands:  1 eigenvalues not converged
     c_bands:  1 eigenvalues not converged
     c_bands:  1 eigenvalues not converged
     c_bands:  1 eigenvalues not converged
     c_bands:  1 eigenvalues not converged
     c_bands:  1 eigenvalues not converged
     c_bands:  1 eigenvalues not converged
     c_bands:  1 eigenvalues not converged
     c_bands:  1 eigenvalues not converged
     c_bands:  1 eigenvalues not converged
     c_bands:  1 eigenvalues not converged
     c_bands:  1 eigenvalues not converged
     c_bands:  1 eigenvalues not converged
     c_bands:  1 eigenvalues not converged
     c_bands:  1 eigenvalues not converged
     c_bands:  1 eigenvalues not converged
     ethr =  3.44E-07,  avg # of iterations =  9.8

     negative rho (up, down):  0.000E+00 1.016E-03

     total cpu time spent up to now is     8230.1 secs

     total energy              =   -2126.00668683 Ry
     estimated scf accuracy    <       0.00198049 Ry

     total magnetization       =    19.00 Bohr mag/cell
     absolute magnetization    =    19.05 Bohr mag/cell

     iteration # 16     ecut=   100.00 Ry     beta= 0.40
     Davidson diagonalization with overlap
     c_bands:  1 eigenvalues not converged
     ethr =  3.44E-07,  avg # of iterations =  1.4

     negative rho (up, down):  0.000E+00 1.014E-03

     total cpu time spent up to now is     8681.8 secs

     total energy              =   -2126.00674942 Ry
     estimated scf accuracy    <       0.00016103 Ry

     total magnetization       =    19.00 Bohr mag/cell
     absolute magnetization    =    19.05 Bohr mag/cell

     iteration # 17     ecut=   100.00 Ry     beta= 0.40
     Davidson diagonalization with overlap
     ethr =  8.52E-08,  avg # of iterations =  2.0

     negative rho (up, down):  0.000E+00 1.014E-03

     total cpu time spent up to now is     9160.7 secs

     total energy              =   -2126.00676407 Ry
     estimated scf accuracy    <       0.00083999 Ry

     total magnetization       =    19.00 Bohr mag/cell
     absolute magnetization    =    19.05 Bohr mag/cell

     iteration # 18     ecut=   100.00 Ry     beta= 0.40
     Davidson diagonalization with overlap
     ethr =  8.52E-08,  avg # of iterations =  1.0

     negative rho (up, down):  0.000E+00 1.010E-03

     total cpu time spent up to now is     9606.3 secs

     total energy              =   -2126.00678025 Ry
     estimated scf accuracy    <       0.00006678 Ry

     total magnetization       =    19.00 Bohr mag/cell
     absolute magnetization    =    19.05 Bohr mag/cell

     iteration # 19     ecut=   100.00 Ry     beta= 0.40
     Davidson diagonalization with overlap
     ethr =  3.53E-08,  avg # of iterations =  2.0

     negative rho (up, down):  0.000E+00 1.012E-03

     total cpu time spent up to now is    10085.7 secs

     total energy              =   -2126.00678816 Ry
     estimated scf accuracy    <       0.00017846 Ry

     total magnetization       =    19.00 Bohr mag/cell
     absolute magnetization    =    19.06 Bohr mag/cell

     iteration # 20     ecut=   100.00 Ry     beta= 0.40
     Davidson diagonalization with overlap
     ethr =  3.53E-08,  avg # of iterations =  1.1

     negative rho (up, down):  0.000E+00 1.011E-03

     total cpu time spent up to now is    10534.3 secs

     total energy              =   -2126.00679533 Ry
     estimated scf accuracy    <       0.00000823 Ry

     total magnetization       =    19.00 Bohr mag/cell
     absolute magnetization    =    19.06 Bohr mag/cell

     iteration # 21     ecut=   100.00 Ry     beta= 0.40
     Davidson diagonalization with overlap
     ethr =  4.35E-09,  avg # of iterations =  2.8

     negative rho (up, down):  0.000E+00 1.011E-03

     total cpu time spent up to now is    11095.9 secs

     total energy              =   -2126.00680013 Ry
     estimated scf accuracy    <       0.00000621 Ry

     total magnetization       =    19.00 Bohr mag/cell
     absolute magnetization    =    19.06 Bohr mag/cell

     iteration # 22     ecut=   100.00 Ry     beta= 0.40
     Davidson diagonalization with overlap
     ethr =  3.28E-09,  avg # of iterations =  2.0

     negative rho (up, down):  0.000E+00 1.012E-03

     total cpu time spent up to now is    11600.0 secs

     total energy              =   -2126.00680223 Ry
     estimated scf accuracy    <       0.00000755 Ry

     total magnetization       =    19.00 Bohr mag/cell
     absolute magnetization    =    19.06 Bohr mag/cell

     iteration # 23     ecut=   100.00 Ry     beta= 0.40
     Davidson diagonalization with overlap
     ethr =  3.28E-09,  avg # of iterations =  2.0

     negative rho (up, down):  0.000E+00 1.012E-03

     total cpu time spent up to now is    12081.1 secs

     total energy              =   -2126.00680306 Ry
     estimated scf accuracy    <       0.00000933 Ry

     total magnetization       =    19.00 Bohr mag/cell
     absolute magnetization    =    19.06 Bohr mag/cell

     iteration # 24     ecut=   100.00 Ry     beta= 0.40
     Davidson diagonalization with overlap
     ethr =  3.28E-09,  avg # of iterations =  1.0

     negative rho (up, down):  0.000E+00 1.012E-03

     total cpu time spent up to now is    12525.7 secs

     total energy              =   -2126.00680327 Ry
     estimated scf accuracy    <       0.00000233 Ry

     total magnetization       =    19.00 Bohr mag/cell
     absolute magnetization    =    19.06 Bohr mag/cell

     iteration # 25     ecut=   100.00 Ry     beta= 0.40
     Davidson diagonalization with overlap
     ethr =  1.23E-09,  avg # of iterations =  1.2

     negative rho (up, down):  0.000E+00 1.012E-03

     total cpu time spent up to now is    12977.1 secs

     total energy              =   -2126.00680341 Ry
     estimated scf accuracy    <       0.00000053 Ry

     total magnetization       =    19.00 Bohr mag/cell
     absolute magnetization    =    19.06 Bohr mag/cell

     iteration # 26     ecut=   100.00 Ry     beta= 0.40
     Davidson diagonalization with overlap
     ethr =  2.80E-10,  avg # of iterations =  4.2

     negative rho (up, down):  0.000E+00 1.012E-03

     total cpu time spent up to now is    13545.0 secs

     total energy              =   -2126.00680353 Ry
     estimated scf accuracy    <       0.00000189 Ry

     total magnetization       =    19.00 Bohr mag/cell
     absolute magnetization    =    19.06 Bohr mag/cell

     iteration # 27     ecut=   100.00 Ry     beta= 0.40
     Davidson diagonalization with overlap
     ethr =  2.80E-10,  avg # of iterations =  1.0

     negative rho (up, down):  0.000E+00 1.012E-03

     total cpu time spent up to now is    13991.9 secs

     total energy              =   -2126.00680361 Ry
     estimated scf accuracy    <       0.00000008 Ry

     total magnetization       =    19.00 Bohr mag/cell
     absolute magnetization    =    19.06 Bohr mag/cell

     iteration # 28     ecut=   100.00 Ry     beta= 0.40
     Davidson diagonalization with overlap
     ethr =  4.40E-11,  avg # of iterations =  2.6

     negative rho (up, down):  0.000E+00 1.012E-03

     total cpu time spent up to now is    14495.8 secs

     total energy              =   -2126.00680363 Ry
     estimated scf accuracy    <       0.00000003 Ry

     total magnetization       =    19.00 Bohr mag/cell
     absolute magnetization    =    19.06 Bohr mag/cell

     iteration # 29     ecut=   100.00 Ry     beta= 0.40
     Davidson diagonalization with overlap
     ethr =  1.84E-11,  avg # of iterations =  2.4

     negative rho (up, down):  0.000E+00 1.012E-03

     total cpu time spent up to now is    14988.1 secs

     total energy              =   -2126.00680364 Ry
     estimated scf accuracy    <       0.00000003 Ry

     total magnetization       =    19.00 Bohr mag/cell
     absolute magnetization    =    19.06 Bohr mag/cell

     iteration # 30     ecut=   100.00 Ry     beta= 0.40
     Davidson diagonalization with overlap
     ethr =  1.45E-11,  avg # of iterations =  1.7

     negative rho (up, down):  0.000E+00 1.012E-03

     total cpu time spent up to now is    15455.8 secs

     total energy              =   -2126.00680365 Ry
     estimated scf accuracy    <       0.00000001 Ry

     total magnetization       =    19.00 Bohr mag/cell
     absolute magnetization    =    19.06 Bohr mag/cell

     iteration # 31     ecut=   100.00 Ry     beta= 0.40
     Davidson diagonalization with overlap
     ethr =  5.66E-12,  avg # of iterations =  2.1

     negative rho (up, down):  0.000E+00 1.012E-03

     total cpu time spent up to now is    15935.1 secs

     total energy              =   -2126.00680365 Ry
     estimated scf accuracy    <       0.00000002 Ry

     total magnetization       =    19.00 Bohr mag/cell
     absolute magnetization    =    19.06 Bohr mag/cell

     iteration # 32     ecut=   100.00 Ry     beta= 0.40
     Davidson diagonalization with overlap
     ethr =  5.66E-12,  avg # of iterations =  2.0

     negative rho (up, down):  0.000E+00 1.012E-03

     total cpu time spent up to now is    16416.4 secs

     total energy              =   -2126.00680365 Ry
     estimated scf accuracy    <          2.4E-09 Ry

     total magnetization       =    19.00 Bohr mag/cell
     absolute magnetization    =    19.06 Bohr mag/cell

     iteration # 33     ecut=   100.00 Ry     beta= 0.40
     Davidson diagonalization with overlap
     ethr =  1.29E-12,  avg # of iterations =  3.4

     negative rho (up, down):  0.000E+00 1.012E-03

     total cpu time spent up to now is    16932.5 secs

     total energy              =   -2126.00680365 Ry
     estimated scf accuracy    <          4.5E-09 Ry

     total magnetization       =    19.00 Bohr mag/cell
     absolute magnetization    =    19.06 Bohr mag/cell

     iteration # 34     ecut=   100.00 Ry     beta= 0.40
     Davidson diagonalization with overlap
     ethr =  1.29E-12,  avg # of iterations =  1.1

     negative rho (up, down):  0.000E+00 1.012E-03

     total cpu time spent up to now is    17381.6 secs

     total energy              =   -2126.00680365 Ry
     estimated scf accuracy    <          1.4E-09 Ry

     total magnetization       =    19.00 Bohr mag/cell
     absolute magnetization    =    19.06 Bohr mag/cell

     iteration # 35     ecut=   100.00 Ry     beta= 0.40
     Davidson diagonalization with overlap
     ethr =  7.25E-13,  avg # of iterations =  1.5

     negative rho (up, down):  0.000E+00 1.012E-03

     total cpu time spent up to now is    17842.8 secs

     total energy              =   -2126.00680365 Ry
     estimated scf accuracy    <          4.7E-10 Ry

     total magnetization       =    19.00 Bohr mag/cell
     absolute magnetization    =    19.06 Bohr mag/cell

     iteration # 36     ecut=   100.00 Ry     beta= 0.40
     Davidson diagonalization with overlap
     ethr =  2.48E-13,  avg # of iterations =  2.8

     negative rho (up, down):  0.000E+00 1.012E-03

     total cpu time spent up to now is    18329.5 secs

     total energy              =   -2126.00680365 Ry
     estimated scf accuracy    <          6.0E-10 Ry

     total magnetization       =    19.00 Bohr mag/cell
     absolute magnetization    =    19.06 Bohr mag/cell

     iteration # 37     ecut=   100.00 Ry     beta= 0.40
     Davidson diagonalization with overlap
     ethr =  2.48E-13,  avg # of iterations =  1.5

     negative rho (up, down):  0.000E+00 1.012E-03

     Magnetic moment per site:
     atom:    1    charge:    7.9422    magn:    0.0005    constr:    0.0000
     atom:    2    charge:   12.9948    magn:    3.7011    constr:    0.0000
     atom:    3    charge:   13.0019    magn:    3.6827    constr:    0.0000
     atom:    4    charge:   13.0127    magn:    3.6621    constr:    0.0000
     atom:    5    charge:   13.0024    magn:    3.6838    constr:    0.0000
     atom:    6    charge:    0.9117    magn:    0.0096    constr:    0.0000
     atom:    7    charge:    0.9150    magn:    0.0076    constr:    0.0000
     atom:    8    charge:    0.9130    magn:    0.0100    constr:    0.0000
     atom:    9    charge:    0.9111    magn:    0.0076    constr:    0.0000
     atom:   10    charge:    4.3938    magn:    0.1443    constr:    0.0000
     atom:   11    charge:    4.4071    magn:    0.0883    constr:    0.0000
     atom:   12    charge:    4.3962    magn:    0.1386    constr:    0.0000
     atom:   13    charge:    4.3939    magn:    0.0981    constr:    0.0000
     atom:   14    charge:    4.3850    magn:    0.1067    constr:    0.0000
     atom:   15    charge:    4.3918    magn:    0.1410    constr:    0.0000
     atom:   16    charge:    4.3937    magn:    0.0892    constr:    0.0000
     atom:   17    charge:    4.3897    magn:    0.1490    constr:    0.0000
     atom:   18    charge:    4.3672    magn:    0.1507    constr:    0.0000
     atom:   19    charge:    4.3684    magn:    0.1250    constr:    0.0000
     atom:   20    charge:    4.3719    magn:    0.1554    constr:    0.0000
     atom:   21    charge:    4.3703    magn:    0.1373    constr:    0.0000
     atom:   22    charge:    4.3694    magn:    0.1432    constr:    0.0000
     atom:   23    charge:    4.3759    magn:    0.1197    constr:    0.0000
     atom:   24    charge:    4.3683    magn:    0.1561    constr:    0.0000
     atom:   25    charge:    4.3735    magn:    0.1342    constr:    0.0000

     total cpu time spent up to now is    18790.0 secs

     End of self-consistent calculation

 ------ SPIN UP ------------


          k = 0.0000 0.0000 0.0000 ( 40357 PWs)   bands (ev):

   -86.4955 -86.4213 -86.4167 -86.3500 -52.5884 -52.5879 -52.5695 -52.5355
   -52.4526 -52.3920 -52.3381 -52.3180 -52.3142 -52.3112 -52.3021 -52.1730
   -45.9541 -17.9346 -17.9172 -17.8893 -16.5456 -16.3920 -16.2982 -16.2032
   -14.4084 -14.3705 -14.3125 -14.2466 -14.1780 -14.1714 -14.1272 -14.1173
   -14.0817 -14.0721 -13.9765 -13.9215  -4.9759  -4.5575  -4.5234  -4.1981
    -2.8711  -2.5940  -2.5217  -2.3694  -2.1416  -2.0786  -1.9949  -1.9449
    -1.8019  -1.7275  -1.4283  -1.1656  -1.0802  -1.0426  -0.6582  -0.6100
    -0.5004  -0.4453  -0.3092  -0.1610  -0.1441  -0.0744  -0.0087   0.0307
     0.0676   0.2237   0.2618   0.3726   0.6906   0.7016   0.8215   0.8950
     0.9251   1.0281   1.1138   1.1525   1.1860   1.2839   1.4003   1.4610
     1.5332   1.6547   1.6909   1.7450   1.7713   1.9578   1.9803   2.0663
     2.1654   2.2437   2.3326   2.3423   2.3622   2.6032   2.6859   2.8099
     2.8356   2.9046   2.9384   3.0306   3.0767   3.1681   3.4533   3.5441
     7.2640   9.1977   9.7901  10.0600  10.3898  11.0144  11.2475  11.3828
    11.6762  11.8839

     occupation numbers 
     1.0000   1.0000   1.0000   1.0000   1.0000   1.0000   1.0000   1.0000
     1.0000   1.0000   1.0000   1.0000   1.0000   1.0000   1.0000   1.0000
     1.0000   1.0000   1.0000   1.0000   1.0000   1.0000   1.0000   1.0000
     1.0000   1.0000   1.0000   1.0000   1.0000   1.0000   1.0000   1.0000
     1.0000   1.0000   1.0000   1.0000   1.0000   1.0000   1.0000   1.0000
     1.0000   1.0000   1.0000   1.0000   1.0000   1.0000   1.0000   1.0000
     1.0000   1.0000   1.0000   1.0000   1.0000   1.0000   1.0000   1.0000
     1.0000   1.0000   1.0000   1.0000   1.0000   1.0000   1.0000   1.0000
     1.0000   1.0000   1.0000   1.0000   1.0000   1.0000   1.0000   1.0000
     1.0000   1.0000   1.0000   1.0000   1.0000   1.0000   1.0000   1.0000
     1.0000   1.0000   1.0000   1.0000   1.0000   1.0000   1.0000   1.0000
     1.0000   1.0000   1.0000   1.0000   1.0000   1.0000   1.0000   1.0000
     1.0000   1.0000   1.0000   1.0000   1.0000   1.0000   1.0000   1.0000
     0.0000   0.0000   0.0000   0.0000   0.0000   0.0000   0.0000   0.0000
     0.0000   0.0000

          k = 0.0000 0.0000 0.2337 ( 40255 PWs)   bands (ev):

   -86.4955 -86.4213 -86.4167 -86.3500 -52.5884 -52.5879 -52.5695 -52.5355
   -52.4526 -52.3920 -52.3381 -52.3180 -52.3142 -52.3112 -52.3021 -52.1730
   -45.9541 -17.9348 -17.9173 -17.8900 -16.5325 -16.3861 -16.2933 -16.2016
   -14.4165 -14.3773 -14.3236 -14.2509 -14.1817 -14.1743 -14.1288 -14.1145
   -14.0785 -14.0749 -13.9808 -13.9251  -4.9560  -4.5557  -4.5188  -4.2071
    -2.8328  -2.5710  -2.5171  -2.3576  -2.1389  -2.0917  -1.9951  -1.8963
    -1.7922  -1.6972  -1.4680  -1.1479  -1.1154  -1.0242  -0.6461  -0.5897
    -0.5001  -0.4089  -0.3085  -0.1606  -0.1524  -0.0866  -0.0317   0.0416
     0.0744   0.2272   0.2560   0.3686   0.6219   0.6617   0.7873   0.8470
     0.9072   1.0526   1.1011   1.1339   1.1697   1.2487   1.4210   1.5020
     1.5705   1.6478   1.6929   1.7146   1.8136   1.9085   2.0074   2.0252
     2.1431   2.2445   2.2958   2.3542   2.3568   2.6382   2.6887   2.8124
     2.8445   2.9241   2.9557   3.0272   3.0747   3.1777   3.4318   3.5246
     7.4087   9.2791   9.8147  10.0731  10.4252  10.9553  11.1988  11.4150
    11.6021  11.8595

     occupation numbers 
     1.0000   1.0000   1.0000   1.0000   1.0000   1.0000   1.0000   1.0000
     1.0000   1.0000   1.0000   1.0000   1.0000   1.0000   1.0000   1.0000
     1.0000   1.0000   1.0000   1.0000   1.0000   1.0000   1.0000   1.0000
     1.0000   1.0000   1.0000   1.0000   1.0000   1.0000   1.0000   1.0000
     1.0000   1.0000   1.0000   1.0000   1.0000   1.0000   1.0000   1.0000
     1.0000   1.0000   1.0000   1.0000   1.0000   1.0000   1.0000   1.0000
     1.0000   1.0000   1.0000   1.0000   1.0000   1.0000   1.0000   1.0000
     1.0000   1.0000   1.0000   1.0000   1.0000   1.0000   1.0000   1.0000
     1.0000   1.0000   1.0000   1.0000   1.0000   1.0000   1.0000   1.0000
     1.0000   1.0000   1.0000   1.0000   1.0000   1.0000   1.0000   1.0000
     1.0000   1.0000   1.0000   1.0000   1.0000   1.0000   1.0000   1.0000
     1.0000   1.0000   1.0000   1.0000   1.0000   1.0000   1.0000   1.0000
     1.0000   1.0000   1.0000   1.0000   1.0000   1.0000   1.0000   1.0000
     0.0000   0.0000   0.0000   0.0000   0.0000   0.0000   0.0000   0.0000
     0.0000   0.0000

          k = 0.0000 0.0000 0.4675 ( 40285 PWs)   bands (ev):

   -86.4955 -86.4213 -86.4167 -86.3500 -52.5884 -52.5879 -52.5695 -52.5355
   -52.4526 -52.3920 -52.3381 -52.3180 -52.3142 -52.3112 -52.3021 -52.1730
   -45.9541 -17.9353 -17.9180 -17.8913 -16.4969 -16.3726 -16.2802 -16.1987
   -14.4387 -14.3946 -14.3500 -14.2665 -14.1929 -14.1805 -14.1280 -14.1073
   -14.0829 -14.0665 -13.9930 -13.9352  -4.8988  -4.5552  -4.5055  -4.2395
    -2.7280  -2.5195  -2.4938  -2.3432  -2.1338  -2.0891  -1.9948  -1.8004
    -1.7371  -1.6218  -1.5698  -1.2332  -1.0649  -0.9656  -0.6039  -0.5483
    -0.4754  -0.3318  -0.3044  -0.1828  -0.1611  -0.1251  -0.0675   0.0506
     0.0915   0.2225   0.2563   0.3491   0.4696   0.5953   0.6912   0.7783
     0.8200   0.9116   1.0807   1.1149   1.1755   1.2831   1.4315   1.5032
     1.5846   1.6465   1.7089   1.7354   1.7475   1.8495   1.9177   2.0419
     2.1187   2.2741   2.2821   2.3894   2.4234   2.6584   2.6959   2.8293
     2.8809   2.9654   2.9925   3.0379   3.0669   3.1972   3.3657   3.4664
     7.7939   9.5011   9.8436  10.1170  10.5418  10.8511  11.0708  11.3729
    11.4645  11.7185

     occupation numbers 
     1.0000   1.0000   1.0000   1.0000   1.0000   1.0000   1.0000   1.0000
     1.0000   1.0000   1.0000   1.0000   1.0000   1.0000   1.0000   1.0000
     1.0000   1.0000   1.0000   1.0000   1.0000   1.0000   1.0000   1.0000
     1.0000   1.0000   1.0000   1.0000   1.0000   1.0000   1.0000   1.0000
     1.0000   1.0000   1.0000   1.0000   1.0000   1.0000   1.0000   1.0000
     1.0000   1.0000   1.0000   1.0000   1.0000   1.0000   1.0000   1.0000
     1.0000   1.0000   1.0000   1.0000   1.0000   1.0000   1.0000   1.0000
     1.0000   1.0000   1.0000   1.0000   1.0000   1.0000   1.0000   1.0000
     1.0000   1.0000   1.0000   1.0000   1.0000   1.0000   1.0000   1.0000
     1.0000   1.0000   1.0000   1.0000   1.0000   1.0000   1.0000   1.0000
     1.0000   1.0000   1.0000   1.0000   1.0000   1.0000   1.0000   1.0000
     1.0000   1.0000   1.0000   1.0000   1.0000   1.0000   1.0000   1.0000
     1.0000   1.0000   1.0000   1.0000   1.0000   1.0000   1.0000   1.0000
     0.0000   0.0000   0.0000   0.0000   0.0000   0.0000   0.0000   0.0000
     0.0000   0.0000

          k = 0.0000 0.0000 0.7012 ( 40253 PWs)   bands (ev):

   -86.4955 -86.4213 -86.4167 -86.3500 -52.5884 -52.5879 -52.5695 -52.5355
   -52.4526 -52.3920 -52.3381 -52.3180 -52.3142 -52.3112 -52.3021 -52.1730
   -45.9541 -17.9361 -17.9194 -17.8917 -16.4490 -16.3629 -16.2622 -16.1986
   -14.4663 -14.4156 -14.3785 -14.2922 -14.2047 -14.1853 -14.1247 -14.1007
   -14.0813 -14.0523 -14.0118 -13.9489  -4.8130  -4.5707  -4.4826  -4.2979
    -2.6014  -2.4835  -2.4321  -2.3455  -2.1244  -2.0488  -1.9865  -1.7612
    -1.6847  -1.6049  -1.5181  -1.3721  -0.9413  -0.8504  -0.5366  -0.5007
    -0.4325  -0.3332  -0.2565  -0.2314  -0.2008  -0.1499  -0.0830   0.0672
     0.0846   0.1911   0.2807   0.3031   0.3366   0.4741   0.5478   0.5879
     0.7750   0.8639   1.0562   1.0619   1.1537   1.3819   1.4239   1.4861
     1.5351   1.5593   1.6154   1.7038   1.7563   1.8048   1.8397   1.9834
     2.1772   2.3038   2.3448   2.5509   2.5656   2.6345   2.7084   2.8419
     2.9196   3.0023   3.0328   3.0446   3.0966   3.2063   3.2558   3.3728
     8.3184   9.7241   9.8319  10.2162  10.6725  10.7522  10.9242  11.2285
    11.3746  11.5298

     occupation numbers 
     1.0000   1.0000   1.0000   1.0000   1.0000   1.0000   1.0000   1.0000
     1.0000   1.0000   1.0000   1.0000   1.0000   1.0000   1.0000   1.0000
     1.0000   1.0000   1.0000   1.0000   1.0000   1.0000   1.0000   1.0000
     1.0000   1.0000   1.0000   1.0000   1.0000   1.0000   1.0000   1.0000
     1.0000   1.0000   1.0000   1.0000   1.0000   1.0000   1.0000   1.0000
     1.0000   1.0000   1.0000   1.0000   1.0000   1.0000   1.0000   1.0000
     1.0000   1.0000   1.0000   1.0000   1.0000   1.0000   1.0000   1.0000
     1.0000   1.0000   1.0000   1.0000   1.0000   1.0000   1.0000   1.0000
     1.0000   1.0000   1.0000   1.0000   1.0000   1.0000   1.0000   1.0000
     1.0000   1.0000   1.0000   1.0000   1.0000   1.0000   1.0000   1.0000
     1.0000   1.0000   1.0000   1.0000   1.0000   1.0000   1.0000   1.0000
     1.0000   1.0000   1.0000   1.0000   1.0000   1.0000   1.0000   1.0000
     1.0000   1.0000   1.0000   1.0000   1.0000   1.0000   1.0000   1.0000
     0.0000   0.0000   0.0000   0.0000   0.0000   0.0000   0.0000   0.0000
     0.0000   0.0000

          k = 0.0000 0.0000 0.9349 ( 40286 PWs)   bands (ev):

   -86.4955 -86.4213 -86.4167 -86.3500 -52.5884 -52.5879 -52.5695 -52.5355
   -52.4526 -52.3920 -52.3381 -52.3180 -52.3142 -52.3112 -52.3021 -52.1730
   -45.9541 -17.9369 -17.9205 -17.8914 -16.4037 -16.3701 -16.2457 -16.2028
   -14.4849 -14.4302 -14.3965 -14.3126 -14.2110 -14.1875 -14.1226 -14.1012
   -14.0640 -14.0410 -14.0330 -13.9605  -4.7182  -4.6175  -4.4479  -4.3626
    -2.5174  -2.4736  -2.3784  -2.3449  -2.1008  -1.9996  -1.9681  -1.8590
    -1.6365  -1.5265  -1.5016  -1.4335  -0.7652  -0.6649  -0.5262  -0.4596
    -0.4357  -0.4092  -0.3216  -0.2857  -0.2229  -0.0870  -0.0538   0.0228
     0.1019   0.1692   0.1999   0.2352   0.3319   0.3511   0.3970   0.5216
     0.7887   0.9193   0.9817   1.0216   1.1942   1.3500   1.3676   1.4185
     1.4999   1.5436   1.6228   1.6566   1.7213   1.7771   1.8231   1.9696
     2.1920   2.3160   2.4096   2.5776   2.6933   2.7408   2.8027   2.8523
     2.9335   2.9735   3.0370   3.0689   3.1134   3.1627   3.2097   3.2685
     8.8808   9.4038  10.1621  10.3640  10.5094  10.5952  11.0419  11.1899
    11.3625  11.3803

     occupation numbers 
     1.0000   1.0000   1.0000   1.0000   1.0000   1.0000   1.0000   1.0000
     1.0000   1.0000   1.0000   1.0000   1.0000   1.0000   1.0000   1.0000
     1.0000   1.0000   1.0000   1.0000   1.0000   1.0000   1.0000   1.0000
     1.0000   1.0000   1.0000   1.0000   1.0000   1.0000   1.0000   1.0000
     1.0000   1.0000   1.0000   1.0000   1.0000   1.0000   1.0000   1.0000
     1.0000   1.0000   1.0000   1.0000   1.0000   1.0000   1.0000   1.0000
     1.0000   1.0000   1.0000   1.0000   1.0000   1.0000   1.0000   1.0000
     1.0000   1.0000   1.0000   1.0000   1.0000   1.0000   1.0000   1.0000
     1.0000   1.0000   1.0000   1.0000   1.0000   1.0000   1.0000   1.0000
     1.0000   1.0000   1.0000   1.0000   1.0000   1.0000   1.0000   1.0000
     1.0000   1.0000   1.0000   1.0000   1.0000   1.0000   1.0000   1.0000
     1.0000   1.0000   1.0000   1.0000   1.0000   1.0000   1.0000   1.0000
     1.0000   1.0000   1.0000   1.0000   1.0000   1.0000   1.0000   1.0000
     0.0000   0.0000   0.0000   0.0000   0.0000   0.0000   0.0000   0.0000
     0.0000   0.0000

          k = 0.0000 0.2391 0.0000 ( 40305 PWs)   bands (ev):

   -86.4955 -86.4213 -86.4167 -86.3500 -52.5884 -52.5879 -52.5695 -52.5355
   -52.4526 -52.3920 -52.3381 -52.3180 -52.3142 -52.3112 -52.3021 -52.1730
   -45.9541 -17.9346 -17.9173 -17.8893 -16.5310 -16.3902 -16.2966 -16.2185
   -14.4088 -14.3682 -14.3099 -14.2521 -14.2111 -14.1717 -14.1420 -14.1108
   -14.0739 -14.0433 -13.9752 -13.9240  -4.9539  -4.5730  -4.5064  -4.2068
    -2.8489  -2.5995  -2.5112  -2.3738  -2.1344  -2.0746  -1.9682  -1.9258
    -1.7754  -1.7200  -1.4157  -1.1538  -1.1207  -1.0098  -0.6174  -0.5725
    -0.4907  -0.4605  -0.3905  -0.2725  -0.1662  -0.0759   0.0065   0.0833
     0.1730   0.2095   0.2648   0.3656   0.5716   0.5895   0.6966   0.8424
     0.9549   1.1108   1.1178   1.1454   1.2196   1.3051   1.3224   1.4499
     1.5474   1.6562   1.6908   1.7205   1.8451   1.9791   2.0204   2.0688
     2.1766   2.2141   2.2530   2.3613   2.4369   2.6016   2.6723   2.7601
     2.8314   2.9011   2.9418   2.9830   3.0873   3.2139   3.4662   3.5283
     7.4161   9.2834   9.8526   9.9491  10.4491  10.9783  11.3297  11.4567
    11.6070  11.8813

     occupation numbers 
     1.0000   1.0000   1.0000   1.0000   1.0000   1.0000   1.0000   1.0000
     1.0000   1.0000   1.0000   1.0000   1.0000   1.0000   1.0000   1.0000
     1.0000   1.0000   1.0000   1.0000   1.0000   1.0000   1.0000   1.0000
     1.0000   1.0000   1.0000   1.0000   1.0000   1.0000   1.0000   1.0000
     1.0000   1.0000   1.0000   1.0000   1.0000   1.0000   1.0000   1.0000
     1.0000   1.0000   1.0000   1.0000   1.0000   1.0000   1.0000   1.0000
     1.0000   1.0000   1.0000   1.0000   1.0000   1.0000   1.0000   1.0000
     1.0000   1.0000   1.0000   1.0000   1.0000   1.0000   1.0000   1.0000
     1.0000   1.0000   1.0000   1.0000   1.0000   1.0000   1.0000   1.0000
     1.0000   1.0000   1.0000   1.0000   1.0000   1.0000   1.0000   1.0000
     1.0000   1.0000   1.0000   1.0000   1.0000   1.0000   1.0000   1.0000
     1.0000   1.0000   1.0000   1.0000   1.0000   1.0000   1.0000   1.0000
     1.0000   1.0000   1.0000   1.0000   1.0000   1.0000   1.0000   1.0000
     0.0000   0.0000   0.0000   0.0000   0.0000   0.0000   0.0000   0.0000
     0.0000   0.0000

          k = 0.0000 0.2391 0.2337 ( 40274 PWs)   bands (ev):

   -86.4955 -86.4213 -86.4167 -86.3500 -52.5884 -52.5879 -52.5695 -52.5355
   -52.4526 -52.3920 -52.3381 -52.3180 -52.3142 -52.3112 -52.3021 -52.1730
   -45.9541 -17.9348 -17.9176 -17.8900 -16.5170 -16.3845 -16.2919 -16.2170
   -14.4169 -14.3755 -14.3239 -14.2540 -14.2115 -14.1756 -14.1482 -14.1038
   -14.0779 -14.0440 -13.9770 -13.9262  -4.9347  -4.5687  -4.5040  -4.2142
    -2.8122  -2.5756  -2.5069  -2.3599  -2.1337  -2.0868  -1.9567  -1.8868
    -1.7592  -1.7026  -1.4559  -1.1679  -1.1181  -0.9979  -0.6035  -0.5539
    -0.5162  -0.4213  -0.3809  -0.2698  -0.1615  -0.0590  -0.0070   0.0695
     0.1581   0.2206   0.2603   0.3628   0.5204   0.5722   0.6590   0.8194
     0.9710   1.0542   1.1110   1.1697   1.1941   1.2475   1.3740   1.4684
     1.5153   1.6570   1.6875   1.7291   1.8483   1.9189   2.0199   2.0612
     2.1316   2.2279   2.2671   2.3615   2.4259   2.6233   2.6767   2.7876
     2.8392   2.9177   2.9474   2.9973   3.0831   3.2113   3.4552   3.5102
     7.5546   9.3628   9.8837   9.9800  10.4779  10.9342  11.2718  11.4652
    11.5579  11.8396

     occupation numbers 
     1.0000   1.0000   1.0000   1.0000   1.0000   1.0000   1.0000   1.0000
     1.0000   1.0000   1.0000   1.0000   1.0000   1.0000   1.0000   1.0000
     1.0000   1.0000   1.0000   1.0000   1.0000   1.0000   1.0000   1.0000
     1.0000   1.0000   1.0000   1.0000   1.0000   1.0000   1.0000   1.0000
     1.0000   1.0000   1.0000   1.0000   1.0000   1.0000   1.0000   1.0000
     1.0000   1.0000   1.0000   1.0000   1.0000   1.0000   1.0000   1.0000
     1.0000   1.0000   1.0000   1.0000   1.0000   1.0000   1.0000   1.0000
     1.0000   1.0000   1.0000   1.0000   1.0000   1.0000   1.0000   1.0000
     1.0000   1.0000   1.0000   1.0000   1.0000   1.0000   1.0000   1.0000
     1.0000   1.0000   1.0000   1.0000   1.0000   1.0000   1.0000   1.0000
     1.0000   1.0000   1.0000   1.0000   1.0000   1.0000   1.0000   1.0000
     1.0000   1.0000   1.0000   1.0000   1.0000   1.0000   1.0000   1.0000
     1.0000   1.0000   1.0000   1.0000   1.0000   1.0000   1.0000   1.0000
     0.0000   0.0000   0.0000   0.0000   0.0000   0.0000   0.0000   0.0000
     0.0000   0.0000

          k = 0.0000 0.2391 0.4675 ( 40259 PWs)   bands (ev):

   -86.4955 -86.4213 -86.4167 -86.3500 -52.5884 -52.5879 -52.5695 -52.5355
   -52.4526 -52.3920 -52.3381 -52.3180 -52.3142 -52.3112 -52.3021 -52.1730
   -45.9541 -17.9353 -17.9183 -17.8912 -16.4820 -16.3703 -16.2800 -16.2121
   -14.4397 -14.3924 -14.3539 -14.2671 -14.2176 -14.1827 -14.1543 -14.0940
   -14.0827 -14.0411 -13.9855 -13.9337  -4.8794  -4.5637  -4.4932  -4.2442
    -2.7109  -2.5194  -2.4858  -2.3410  -2.1321  -2.0776  -1.9579  -1.7811
    -1.7234  -1.6280  -1.5570  -1.2568  -1.0589  -0.9587  -0.5649  -0.5269
    -0.5077  -0.4085  -0.3222  -0.2588  -0.1493  -0.0629  -0.0420   0.0603
     0.1339   0.2260   0.2550   0.3446   0.4025   0.5213   0.6061   0.8051
     0.8414   0.9750   1.0373   1.1269   1.2202   1.2635   1.4054   1.4461
     1.5465   1.6321   1.6846   1.7127   1.7837   1.8359   1.9547   2.0117
     2.0955   2.2276   2.3615   2.3959   2.4486   2.6372   2.6956   2.8165
     2.8727   2.9358   2.9711   3.0533   3.0767   3.2130   3.4192   3.4626
     7.9262   9.5837   9.9197  10.0678  10.5803  10.8540  11.1373  11.3666
    11.4889  11.7161

     occupation numbers 
     1.0000   1.0000   1.0000   1.0000   1.0000   1.0000   1.0000   1.0000
     1.0000   1.0000   1.0000   1.0000   1.0000   1.0000   1.0000   1.0000
     1.0000   1.0000   1.0000   1.0000   1.0000   1.0000   1.0000   1.0000
     1.0000   1.0000   1.0000   1.0000   1.0000   1.0000   1.0000   1.0000
     1.0000   1.0000   1.0000   1.0000   1.0000   1.0000   1.0000   1.0000
     1.0000   1.0000   1.0000   1.0000   1.0000   1.0000   1.0000   1.0000
     1.0000   1.0000   1.0000   1.0000   1.0000   1.0000   1.0000   1.0000
     1.0000   1.0000   1.0000   1.0000   1.0000   1.0000   1.0000   1.0000
     1.0000   1.0000   1.0000   1.0000   1.0000   1.0000   1.0000   1.0000
     1.0000   1.0000   1.0000   1.0000   1.0000   1.0000   1.0000   1.0000
     1.0000   1.0000   1.0000   1.0000   1.0000   1.0000   1.0000   1.0000
     1.0000   1.0000   1.0000   1.0000   1.0000   1.0000   1.0000   1.0000
     1.0000   1.0000   1.0000   1.0000   1.0000   1.0000   1.0000   1.0000
     0.0000   0.0000   0.0000   0.0000   0.0000   0.0000   0.0000   0.0000
     0.0000   0.0000

          k = 0.0000 0.2391 0.7012 ( 40257 PWs)   bands (ev):

   -86.4955 -86.4213 -86.4167 -86.3500 -52.5884 -52.5879 -52.5695 -52.5355
   -52.4526 -52.3920 -52.3381 -52.3180 -52.3142 -52.3112 -52.3021 -52.1730
   -45.9541 -17.9361 -17.9195 -17.8916 -16.4365 -16.3586 -16.2648 -16.2078
   -14.4679 -14.4137 -14.3839 -14.2926 -14.2245 -14.1890 -14.1527 -14.0965
   -14.0711 -14.0369 -13.9980 -13.9447  -4.7972  -4.5730  -4.4726  -4.2990
    -2.5876  -2.4764  -2.4299  -2.3388  -2.1202  -2.0400  -1.9482  -1.7374
    -1.6762  -1.6063  -1.5182  -1.3769  -0.9625  -0.8785  -0.5527  -0.4768
    -0.4625  -0.4354  -0.2776  -0.1900  -0.1352  -0.1177  -0.0630   0.0698
     0.0956   0.2193   0.2577   0.2822   0.3149   0.4653   0.5283   0.5902
     0.8071   0.8614   0.9704   1.0855   1.2337   1.3447   1.3654   1.4365
     1.4945   1.5790   1.6510   1.6898   1.7269   1.7910   1.8594   1.9725
     2.1249   2.2317   2.4063   2.4933   2.5866   2.6342   2.7195   2.8280
     2.8786   2.9797   3.0117   3.0716   3.1184   3.2123   3.3589   3.3936
     8.4373   9.8235   9.9090  10.1973  10.7055  10.8138  10.9632  11.2212
    11.3797  11.5444

     occupation numbers 
     1.0000   1.0000   1.0000   1.0000   1.0000   1.0000   1.0000   1.0000
     1.0000   1.0000   1.0000   1.0000   1.0000   1.0000   1.0000   1.0000
     1.0000   1.0000   1.0000   1.0000   1.0000   1.0000   1.0000   1.0000
     1.0000   1.0000   1.0000   1.0000   1.0000   1.0000   1.0000   1.0000
     1.0000   1.0000   1.0000   1.0000   1.0000   1.0000   1.0000   1.0000
     1.0000   1.0000   1.0000   1.0000   1.0000   1.0000   1.0000   1.0000
     1.0000   1.0000   1.0000   1.0000   1.0000   1.0000   1.0000   1.0000
     1.0000   1.0000   1.0000   1.0000   1.0000   1.0000   1.0000   1.0000
     1.0000   1.0000   1.0000   1.0000   1.0000   1.0000   1.0000   1.0000
     1.0000   1.0000   1.0000   1.0000   1.0000   1.0000   1.0000   1.0000
     1.0000   1.0000   1.0000   1.0000   1.0000   1.0000   1.0000   1.0000
     1.0000   1.0000   1.0000   1.0000   1.0000   1.0000   1.0000   1.0000
     1.0000   1.0000   1.0000   1.0000   1.0000   1.0000   1.0000   1.0000
     0.0000   0.0000   0.0000   0.0000   0.0000   0.0000   0.0000   0.0000
     0.0000   0.0000

          k = 0.0000 0.2391 0.9349 ( 40230 PWs)   bands (ev):

   -86.4955 -86.4213 -86.4167 -86.3500 -52.5884 -52.5879 -52.5695 -52.5355
   -52.4526 -52.3920 -52.3381 -52.3180 -52.3142 -52.3112 -52.3021 -52.1730
   -45.9541 -17.9369 -17.9205 -17.8914 -16.3952 -16.3641 -16.2501 -16.2074
   -14.4873 -14.4293 -14.4020 -14.3133 -14.2275 -14.1926 -14.1486 -14.1006
   -14.0527 -14.0401 -14.0066 -13.9548  -4.7081  -4.6106  -4.4430  -4.3592
    -2.5054  -2.4631  -2.3771  -2.3402  -2.0929  -2.0018  -1.9273  -1.8240
    -1.6448  -1.5247  -1.4949  -1.4283  -0.8306  -0.7463  -0.6168  -0.5586
    -0.3984  -0.3463  -0.2548  -0.2326  -0.1987  -0.0446  -0.0190   0.0135
     0.0917   0.1801   0.2122   0.2530   0.2925   0.3675   0.4198   0.4640
     0.7981   0.8992   0.9406   1.0314   1.2458   1.3180   1.3379   1.4097
[...]
     atom   12 type  3   force =    -0.01172165    0.00110036    0.05387007
     atom   13 type  3   force =     0.00632559    0.00005304    0.05584885
     atom   14 type  3   force =     0.05342465    0.00034043   -0.02008661
     atom   15 type  3   force =    -0.04761308    0.00073137   -0.02569543
     atom   16 type  3   force =    -0.05439393   -0.00178651    0.01060336
     atom   17 type  3   force =     0.04765106   -0.00011668    0.02133202
     atom   18 type  3   force =    -0.02063895   -0.04749767    0.02545848
     atom   19 type  3   force =     0.02098889    0.04875269    0.02586580
     atom   20 type  3   force =     0.02018799   -0.04450552   -0.02333510
     atom   21 type  3   force =    -0.02113437    0.04482394   -0.02702965
     atom   22 type  3   force =     0.02309984    0.04776607   -0.02446820
     atom   23 type  3   force =    -0.02546798   -0.04366013   -0.02057762
     atom   24 type  3   force =    -0.01991792    0.04659671    0.02639637
     atom   25 type  3   force =     0.02233587   -0.04420385    0.03002353
     The non-local contrib.  to forces
     atom    1 type  2   force =     0.03007049    0.01406131   -0.00254911
     atom    2 type  1   force =     0.09563520    0.04966406    0.11500901
     atom    3 type  1   force =     0.04531219   -0.00465857    0.09704816
     atom    4 type  1   force =    -0.14928828   -0.06851324   -0.09652862
     atom    5 type  1   force =    -0.04417960    0.01908620   -0.08601583
     atom    6 type  4   force =    -0.02788333   -0.00007732   -0.03382773
     atom    7 type  4   force =     0.03528412   -0.00250800   -0.01281499
     atom    8 type  4   force =     0.01657271    0.00850521    0.03665842
     atom    9 type  4   force =    -0.00937777    0.00019716    0.03078304
     atom   10 type  3   force =     0.34590811   -0.02719206   -1.50949619
     atom   11 type  3   force =    -0.15829660   -0.02358058   -1.45322782
     atom   12 type  3   force =    -0.41053897    0.01653644    1.51323785
     atom   13 type  3   force =     0.27829161    0.00424798    1.50305946
     atom   14 type  3   force =     1.24622821   -0.02672749   -0.65942837
     atom   15 type  3   force =    -1.20873168    0.02257510   -0.76837650
     atom   16 type  3   force =    -1.23440949   -0.05724788    0.41299755
     atom   17 type  3   force =     1.19587189   -0.01071782    0.67265027
     atom   18 type  3   force =    -0.54524738   -1.12284102    0.76068167
     atom   19 type  3   force =     0.53827390    1.17049982    0.75752563
     atom   20 type  3   force =     0.52427818   -1.09270496   -0.69908493
     atom   21 type  3   force =    -0.54447477    1.08646200   -0.78845834
     atom   22 type  3   force =     0.60085516    1.13180601   -0.72533029
     atom   23 type  3   force =    -0.69154070   -1.05072415   -0.61982233
     atom   24 type  3   force =    -0.53020207    1.10119172    0.77577003
     atom   25 type  3   force =     0.58195016   -1.11262730    0.84653732
     The ionic contribution  to forces
     atom    1 type  2   force =    -1.48133334    0.30359241    0.29186683
     atom    2 type  1   force =    -0.67516401   -0.51237659   -0.41569412
     atom    3 type  1   force =    -8.50726352    1.03529158   -0.42896523
     atom    4 type  1   force =     2.38123745    1.07041772    0.45735123
     atom    5 type  1   force =     8.58429016   -1.39380046    0.75600284
     atom    6 type  4   force =    -3.57055515   -0.04512347    0.33364601
     atom    7 type  4   force =     0.84726460    1.15298348    0.72393374
     atom    8 type  4   force =     4.39117420   -0.00667712   -0.39393689
     atom    9 type  4   force =    -2.02502996   -1.29089554   -0.80781095
     atom   10 type  3   force =    -9.92069513    0.08741395    2.56903499
     atom   11 type  3   force =     4.46599707    1.91986031    1.35645760
     atom   12 type  3   force =    10.96430283   -0.13834919   -2.65160192
     atom   13 type  3   force =    -6.89068912   -1.81997067   -2.03869401
     atom   14 type  3   force =     0.19642738   -1.70792469    4.60054582
     atom   15 type  3   force =    -2.21310803   -0.12446363    6.24590346
     atom   16 type  3   force =    -1.11301236    2.45961108   -2.56298886
     atom   17 type  3   force =     3.19923272    0.12742974   -5.68225801
     atom   18 type  3   force =    -4.38038951    2.79234919   -2.70171168
     atom   19 type  3   force =    -0.36804843   -3.62671529   -1.46422897
     atom   20 type  3   force =     4.66727018    3.27766025    2.22100241
     atom   21 type  3   force =    -1.78708030   -2.16661407    2.51824747
     atom   22 type  3   force =     4.92187234   -3.39362570    2.52805803
     atom   23 type  3   force =     1.24308584    1.62207340    0.20196886
     atom   24 type  3   force =    -4.02690488   -2.60406468   -2.75773697
     atom   25 type  3   force =     1.09711898    2.98191799   -2.89839170
     The local contribution  to forces
     atom    1 type  2   force =     1.44545747   -0.32914544   -0.28684912
     atom    2 type  1   force =     0.57107568    0.45982774    0.29434745
     atom    3 type  1   force =     8.45862501   -1.02997097    0.32836903
     atom    4 type  1   force =    -2.22113156   -0.99807156   -0.35501710
     atom    5 type  1   force =    -8.53570739    1.37438084   -0.66750148
     atom    6 type  4   force =     3.60095051    0.04519718   -0.29982263
     atom    7 type  4   force =    -0.88085425   -1.15005821   -0.70947538
     atom    8 type  4   force =    -4.41121551   -0.00094640    0.35663951
     atom    9 type  4   force =     2.03506215    1.29200924    0.77575348
     atom   10 type  3   force =     9.58827000   -0.06076249   -1.12712275
     atom   11 type  3   force =    -4.31156890   -1.89698399    0.02915397
     atom   12 type  3   force =   -10.57004045    0.12309626    1.20646929
     atom   13 type  3   force =     6.62201593    1.81580734    0.60563567
     atom   14 type  3   force =    -1.37775811    1.73468051   -3.96798541
     atom   15 type  3   force =     3.36306841    0.10284735   -5.51101718
     atom   16 type  3   force =     2.28169123   -2.40464051    2.16493400
     atom   17 type  3   force =    -4.33637151   -0.11693074    5.03780731
     atom   18 type  3   force =     4.89985971   -1.72754427    1.97388597
     atom   19 type  3   force =    -0.14425294    2.51601981    0.73997446
     atom   20 type  3   force =    -5.16641701   -2.23969058   -1.55204218
     atom   21 type  3   force =     2.30532808    1.13514074   -1.76457463
     atom   22 type  3   force =    -5.49391482    2.32019952   -1.83423716
     atom   23 type  3   force =    -0.58354215   -0.62487281    0.39120641
     atom   24 type  3   force =     4.53221218    1.55977313    2.01594409
     atom   25 type  3   force =    -1.65128657   -1.92382526    2.09018831
     The core correction contribution to forces
     atom    1 type  2   force =     0.00000000    0.00000000    0.00000000
     atom    2 type  1   force =    -0.00110363   -0.00034040   -0.00042794
     atom    3 type  1   force =    -0.00006883    0.00013148    0.00033849
     atom    4 type  1   force =     0.00202809    0.00060962    0.00018805
     atom    5 type  1   force =     0.00009848   -0.00029357   -0.00030483
     atom    6 type  4   force =     0.00192572   -0.00001825    0.00251681
     atom    7 type  4   force =    -0.00226605   -0.00001914    0.00079882
     atom    8 type  4   force =    -0.00123760   -0.00053640   -0.00268255
     atom    9 type  4   force =     0.00062912    0.00045112   -0.00187241
     atom   10 type  3   force =    -0.00393761    0.00026653    0.01423053
     atom   11 type  3   force =     0.00215619    0.00021101    0.01360948
     atom   12 type  3   force =     0.00455342   -0.00018293   -0.01423621
     atom   13 type  3   force =    -0.00329280   -0.00003153   -0.01415106
     atom   14 type  3   force =    -0.01146759    0.00031234    0.00678264
     atom   15 type  3   force =     0.01115982   -0.00022723    0.00779348
     atom   16 type  3   force =     0.01134017    0.00049089   -0.00433883
     atom   17 type  3   force =    -0.01108132    0.00010232   -0.00686781
     atom   18 type  3   force =     0.00513632    0.01054368   -0.00739445
     atom   19 type  3   force =    -0.00498440   -0.01104699   -0.00740794
     atom   20 type  3   force =    -0.00494335    0.01022569    0.00679143
     atom   21 type  3   force =     0.00509316   -0.01016779    0.00775399
     atom   22 type  3   force =    -0.00571271   -0.01060943    0.00704285
     atom   23 type  3   force =     0.00652938    0.00986632    0.00606776
     atom   24 type  3   force =     0.00497501   -0.01030855   -0.00757776
     atom   25 type  3   force =    -0.00544736    0.01032598   -0.00831305
     The Hubbard contrib.    to forces
     atom    1 type  2   force =     0.00000000    0.00000000    0.00000000
     atom    2 type  1   force =     0.00000000    0.00000000    0.00000000
     atom    3 type  1   force =     0.00000000    0.00000000    0.00000000
     atom    4 type  1   force =     0.00000000    0.00000000    0.00000000
     atom    5 type  1   force =     0.00000000    0.00000000    0.00000000
     atom    6 type  4   force =     0.00000000    0.00000000    0.00000000
     atom    7 type  4   force =     0.00000000    0.00000000    0.00000000
     atom    8 type  4   force =     0.00000000    0.00000000    0.00000000
     atom    9 type  4   force =     0.00000000    0.00000000    0.00000000
     atom   10 type  3   force =     0.00000000    0.00000000    0.00000000
     atom   11 type  3   force =     0.00000000    0.00000000    0.00000000
     atom   12 type  3   force =     0.00000000    0.00000000    0.00000000
     atom   13 type  3   force =     0.00000000    0.00000000    0.00000000
     atom   14 type  3   force =     0.00000000    0.00000000    0.00000000
     atom   15 type  3   force =     0.00000000    0.00000000    0.00000000
     atom   16 type  3   force =     0.00000000    0.00000000    0.00000000
     atom   17 type  3   force =     0.00000000    0.00000000    0.00000000
     atom   18 type  3   force =     0.00000000    0.00000000    0.00000000
     atom   19 type  3   force =     0.00000000    0.00000000    0.00000000
     atom   20 type  3   force =     0.00000000    0.00000000    0.00000000
     atom   21 type  3   force =     0.00000000    0.00000000    0.00000000
     atom   22 type  3   force =     0.00000000    0.00000000    0.00000000
     atom   23 type  3   force =     0.00000000    0.00000000    0.00000000
     atom   24 type  3   force =     0.00000000    0.00000000    0.00000000
     atom   25 type  3   force =     0.00000000    0.00000000    0.00000000
     The SCF correction term to forces
     atom    1 type  2   force =    -0.00000152   -0.00000166    0.00000049
     atom    2 type  1   force =     0.00000128   -0.00000039    0.00000056
     atom    3 type  1   force =     0.00000270    0.00000004   -0.00000105
     atom    4 type  1   force =     0.00000060    0.00000032   -0.00000042
     atom    5 type  1   force =     0.00000018    0.00000033    0.00000141
     atom    6 type  4   force =     0.00000115   -0.00000003   -0.00000090
     atom    7 type  4   force =     0.00000019    0.00000013    0.00000039
     atom    8 type  4   force =    -0.00000015   -0.00000007   -0.00000043
     atom    9 type  4   force =    -0.00000107    0.00000013   -0.00000015
     atom   10 type  3   force =     0.00000370   -0.00000006    0.00000246
     atom   11 type  3   force =     0.00000198   -0.00000000   -0.00000208
     atom   12 type  3   force =     0.00000169   -0.00000010    0.00000106
     atom   13 type  3   force =     0.00000013    0.00000004   -0.00000122
     atom   14 type  3   force =    -0.00000507   -0.00000011   -0.00000130
     atom   15 type  3   force =    -0.00000144   -0.00000010    0.00000131
     atom   16 type  3   force =    -0.00000333    0.00000004   -0.00000050
     atom   17 type  3   force =    -0.00000055   -0.00000006    0.00000026
     atom   18 type  3   force =     0.00000208   -0.00000514   -0.00000304
     atom   19 type  3   force =     0.00000092   -0.00000453    0.00000263
     atom   20 type  3   force =     0.00000015    0.00000420   -0.00000184
     atom   21 type  3   force =    -0.00000037    0.00000318    0.00000186
     atom   22 type  3   force =     0.00000004   -0.00000420   -0.00000164
     atom   23 type  3   force =    -0.00000020   -0.00000277    0.00000167
     atom   24 type  3   force =     0.00000200    0.00000520   -0.00000302
     atom   25 type  3   force =     0.00000082    0.00000487    0.00000264

     Total force =     0.225074     Total SCF correction =     0.000017


     Computing stress (Cartesian axis) and pressure


     negative rho (up, down):  0.000E+00 1.012E-03
          total   stress  (Ry/bohr**3)                   (kbar)     P=     -143.10
  -0.00119704   0.00001009  -0.00001841         -176.09        1.48       -2.71
   0.00001009  -0.00086329   0.00001511            1.48     -126.99        2.22
  -0.00001841   0.00001511  -0.00085797           -2.71        2.22     -126.21

     kinetic stress (kbar)  23625.86     14.22     -1.82
                               14.22  23847.69      2.08
                               -1.82      2.08  23669.11

     local   stress (kbar)  -5183.34   2120.70    872.64
                             2120.70 -13777.70   -786.31
                              872.64   -786.31  -7900.07

     nonloc. stress (kbar)  -5977.93      0.89     -0.53
                                0.89  -5936.86     -1.14
                               -0.53     -1.14  -5939.35

     hartree stress (kbar)  11792.82   -869.43   -346.21
                             -869.43  16466.63    321.11
                             -346.21    321.11  13520.06

     exc-cor stress (kbar)  -2510.41     -1.06     -0.65
                               -1.06  -2516.45      0.33
                               -0.65      0.33  -2514.41

     corecor stress (kbar)  -2820.03      0.36      0.60
                                0.36  -2820.14     -0.00
                                0.60     -0.00  -2821.31

     ewald   stress (kbar) -19103.07  -1264.19   -526.74
                            -1264.19 -15390.17    466.16
                             -526.74    466.16 -18140.24

     hubbard stress (kbar)      0.00      0.00      0.00
                                0.00      0.00      0.00
                                0.00      0.00      0.00

     DFT-D   stress (kbar)      0.00      0.00      0.00
                                0.00      0.00      0.00
                                0.00      0.00      0.00

     XDM     stress (kbar)      0.00      0.00      0.00
                                0.00      0.00      0.00
                                0.00      0.00      0.00

     dft-nl  stress (kbar)      0.00      0.00      0.00
                                0.00      0.00      0.00
                                0.00      0.00      0.00

     TS-vdW  stress (kbar)      0.00      0.00      0.00
                                0.00      0.00      0.00
                                0.00      0.00      0.00



     init_run     :    205.42s CPU    212.41s WALL (       1 calls)
     electrons    :  18019.47s CPU  18577.08s WALL (       1 calls)
     forces       :     69.72s CPU     71.19s WALL (       1 calls)
     stress       :    689.32s CPU    692.54s WALL (       1 calls)

     Called by init_run:
     wfcinit      :    193.45s CPU    199.97s WALL (       1 calls)
     wfcinit:atom :      2.62s CPU      2.65s WALL (     316 calls)
     wfcinit:wfcr :    180.44s CPU    186.89s WALL (     316 calls)
     potinit      :      4.27s CPU      4.38s WALL (       1 calls)
     hinit0       :      4.19s CPU      4.22s WALL (       1 calls)

     Called by electrons:
     c_bands      :  14498.96s CPU  14902.73s WALL (      37 calls)
     sum_band     :   3374.13s CPU   3512.98s WALL (      37 calls)
     v_of_rho     :     34.44s CPU     35.67s WALL (      38 calls)
     v_h          :      1.65s CPU      1.74s WALL (      38 calls)
     v_xc         :     34.52s CPU     35.71s WALL (      40 calls)
     newd         :     74.78s CPU     88.34s WALL (      38 calls)
     PAW_pot      :     29.65s CPU     29.72s WALL (      38 calls)
     mix_rho      :      7.82s CPU      8.14s WALL (      37 calls)

     Called by c_bands:
     init_us_2    :    258.13s CPU    259.73s WALL (   24332 calls)
     cegterg      :  13999.27s CPU  14400.01s WALL (   11692 calls)

     Called by sum_band:
     sum_band:wei :      0.53s CPU      0.54s WALL (      37 calls)
     sum_band:loo :   3180.43s CPU   3303.41s WALL (      37 calls)
     sum_band:buf :     69.74s CPU     70.35s WALL (   11692 calls)
     sum_band:ini :    125.16s CPU    125.80s WALL (   11692 calls)
     sum_band:cal :    373.61s CPU    381.46s WALL (   11692 calls)
     sum_band:bec :      3.37s CPU      3.48s WALL (   11692 calls)
     addusdens    :    177.62s CPU    193.23s WALL (      37 calls)
     addusd:skk   :      1.02s CPU      1.03s WALL (     111 calls)
     addusd:dgemm :     18.31s CPU     29.73s WALL (     222 calls)
     addusd:qvan2 :    156.97s CPU    157.67s WALL (     222 calls)

     Called by *egterg:
     cdiaghg      :    423.16s CPU    428.28s WALL (   44222 calls)
     cegterg:over :    642.26s CPU    654.47s WALL (   32530 calls)
     cegterg:upda :    475.26s CPU    479.83s WALL (   32530 calls)
     cegterg:last :    847.62s CPU    855.89s WALL (   19600 calls)
     h_psi        :  10367.80s CPU  10728.56s WALL (   44538 calls)
     s_psi        :    849.88s CPU    858.41s WALL (   44538 calls)
     g_psi        :     48.71s CPU     49.10s WALL (   32530 calls)

     Called by h_psi:
     h_psi:calbec :    899.60s CPU    917.21s WALL (   44538 calls)
     vloc_psi     :   8457.29s CPU   8790.25s WALL (   44538 calls)
     add_vuspsi   :    863.13s CPU    872.22s WALL (   44538 calls)

     General routines
     calbec       :   1324.72s CPU   1351.45s WALL (   57810 calls)
     fft          :     40.59s CPU     42.57s WALL (     988 calls)
     ffts         :      0.54s CPU      0.59s WALL (     150 calls)
     fftw         :   7900.47s CPU   8274.40s WALL ( 7170324 calls)
     interpolate  :      2.64s CPU      2.80s WALL (      76 calls)

     Parallel routines
     fft_scatt_xy :   1720.62s CPU   1811.64s WALL ( 7171462 calls)
     fft_scatt_yz :   1352.10s CPU   1443.62s WALL ( 7171462 calls)

     PAW routines
     PAW_pot      :     29.65s CPU     29.72s WALL (      38 calls)

     PWSCF        :      5h16m CPU      5h25m WALL


   This run was terminated on:  16:12:30  16Dec2022            

=------------------------------------------------------------------------------=
   JOB DONE.
=------------------------------------------------------------------------------=
Note: The following floating-point exceptions are signalling: IEEE_UNDERFLOW_FLAG IEEE_DENORMAL
Note: The following floating-point exceptions are signalling: IEEE_DENORMAL
Note: The following floating-point exceptions are signalling: IEEE_DENORMAL
Note: The following floating-point exceptions are signalling: IEEE_INVALID_FLAG IEEE_DENORMAL
Note: The following floating-point exceptions are signalling: IEEE_DENORMAL
Note: The following floating-point exceptions are signalling: IEEE_DENORMAL
Note: The following floating-point exceptions are signalling: IEEE_DENORMAL
Note: The following floating-point exceptions are signalling: IEEE_DENORMAL
Note: The following floating-point exceptions are signalling: IEEE_DENORMAL
Note: The following floating-point exceptions are signalling: IEEE_DENORMAL
Note: The following floating-point exceptions are signalling: IEEE_DENORMAL
Note: The following floating-point exceptions are signalling: IEEE_DENORMAL
