2.51159965 0 0 -1.255799474983 2.175109303119 0 0.000000000000 0.000000000000 8.267796
2.38602 0 0 1.130220000000 2.175109404145 0 0.000000000000 0.000000000000 8.2678
2.42788 0 0 1.172080000000 2.175109404145 0 0.000000000000 0.000000000000 8.2678
2.46974 0 0 1.213940000000 2.175109404145 0 0.000000000000 0.000000000000 8.2678
2.55346 0 0 -1.255800000000 2.175109404145 0 0.000000000000 0.000000000000 8.2678
2.59532 0 0 -1.255800000000 2.175109404145 0 0.000000000000 0.000000000000 8.2678
2.63718 0 0 -1.255800000000 2.175109404145 0 0.000000000000 0.000000000000 8.2678
2.38602 0 0 -1.193010000000 2.066353933938 0 0.000000000000 0.000000000000 8.2678
2.42788 0 0 -1.213940000000 2.10260575734 0 0.000000000000 0.000000000000 8.2678
2.46974 0 0 -1.234870000000 2.138857580743 0 0.000000000000 0.000000000000 8.2678
2.55346 0 0 -1.276730000000 2.211361227547 0 0.000000000000 0.000000000000 8.2678
2.59532 0 0 -1.297660000000 2.24761305095 0 0.000000000000 0.000000000000 8.2678
2.63718 0 0 -1.318590000000 2.283864874352 0 0.000000000000 0.000000000000 8.2678
2.38602 0 0 -1.193010000000 2.066353933938 0 0.000000000000 0.000000000000 7.85441
2.42788 0 0 -1.213940000000 2.10260575734 0 0.000000000000 0.000000000000 7.992206666667
2.46974 0 0 -1.234870000000 2.138857580743 0 0.000000000000 0.000000000000 8.130003333333
2.55346 0 0 -1.276730000000 2.211361227547 0 0.000000000000 0.000000000000 8.405596666667
2.59532 0 0 -1.297660000000 2.24761305095 0 0.000000000000 0.000000000000 8.543393333333
2.63718 0 0 -1.318590000000 2.283864874352 0 0.000000000000 0.000000000000 8.68119