-1.022455e-06 1.450073593782 2.066949 1.255801197472 0.725035709336 6.200847 0 0 2.066949 0 0 6.200847
-0.043997887581 1.455990050167 2.06316641311 1.169944540299 0.730952132046 6.19706641311 -0.002136673641 0.005916389034 2.06316641311 -0.002136673641 0.005916389034 6.19706641311
-0.026589715111 1.443212729327 2.066992031635 1.201306074009 0.718174811206 6.200892031635 1.173398179449 2.168248472339 2.066992031635 1.173398179449 2.168248472339 6.200892031635
-0.004669599431 1.4481273558 2.059403990698 1.237179550929 0.723089437679 6.193303990698 -1.246515024251 2.173163098812 2.059403990698 -1.246515024251 2.173163098812 6.193303990698
0.008470211599 1.446855996804 2.068524848825 1.278226084439 0.721818078683 6.202424848825 1.292178148019 2.171891739816 2.068524848825 1.292178148019 2.171891739816 6.202424848825
0.030208335711 1.450179023545 2.060599804291 1.313917569791 0.725141105423 6.194499804291 0.002302952751 0.000105362411 2.060599804291 0.002302952751 0.000105362411 6.194499804291
0.045602414357 1.453826361115 2.065034473524 1.343265009677 0.728788442994 6.198934473524 0.003743712017 0.003752699982 2.065034473524 0.003743712017 0.003752699982 6.198934473524
-0.008395604786 1.383127388695 2.071124677907 1.184616781234 0.69434136648 6.205024677907 2.377625588224 0.005557410619 2.071124677907 2.377625588224 0.005557410619 6.205024677907
0.005334564924 1.410940009747 2.068991983713 1.219276992804 0.71007002223 6.202891983713 0.005335778864 0.009202137319 2.068991983713 0.005335778864 0.009202137319 6.202891983713
0.007928388925 1.43222961243 2.066776106541 1.242800858665 0.719275659611 6.200676106541 0.007929623795 0.006323845649 2.066776106541 0.007929623795 0.006323845649 6.200676106541
-0.007114477861 1.467681404677 2.071047478625 1.269618075599 0.730559521254 6.204947478625 1.269616798869 2.204801076739 2.071047478625 1.269616798869 2.204801076739 6.204947478625
0.00718093105 1.496887484919 2.075861100812 1.30484352637 0.747681636193 6.209761100812 -1.29047777129 2.246091086031 2.075861100812 -1.29047777129 2.246091086031 6.209761100812
-0.002916836525 1.516106939515 2.067672027877 1.315675800655 0.754817125488 6.201572027877 1.315674482065 2.277394469677 2.067672027877 1.315674482065 2.277394469677 6.201572027877
0.008674409653 1.38338239801 1.958808855259 1.201686795673 0.694596375795 5.886013855259 0.008675602663 0.005812419933 1.958808855259 0.008675602663 0.005812419933 5.886013855259
-0.001706920559 1.404065419102 1.996197448516 1.212235507321 0.703195431585 5.992300781849 2.426174293381 0.002327546673 1.996197448516 2.426174293381 0.002327546673 5.992300781849
-0.002802570363 1.427185624343 2.039891096122 1.232069899377 0.714231671524 6.104892762789 2.466938664507 0.001279857562 2.039891096122 2.466938664507 0.001279857562 6.104892762789
-0.002940105151 1.481285649073 2.093442241731 1.273792448309 0.74416376565 6.296240575064 -0.002938828421 0.007044093588 2.093442241731 -0.002938828421 0.007044093588 6.296240575064
-0.004722811645 1.490204810543 2.12909427691 1.292939783675 0.740998961817 6.400790943577 1.292938486015 2.239408411655 2.12909427691 1.292938486015 2.239408411655 6.400790943577
0.005181164496 1.529587164926 2.171271255137 1.323773801676 0.768297350899 6.511866255137 0.005182483086 0.007009820736 2.171271255137 0.005182483086 0.007009820736 6.511866255137