-746.655800307585
-746.34620335452
-746.526515007401
-746.626971765953
-746.620532875547
-746.528031769161
-746.384453969042
-746.001965375151
-746.384104438995
-746.595383719298
-746.583414662183
-746.386658362119
-746.095409627618
-745.997236175116
-746.381179897013
-746.594003014389
-746.584568424268
-746.396738950162
-746.09751061749