0 0 0 0 0 0 0 0 0 0 0 0
-0.604775344283288 -0.869847715649643 -0.000144495922965496 0.604924982409918 0.869355606758974 -0.000142439041499795 0.60463624767417 0.869490332494977 0.000144495922965496 -0.6047858858008 -0.868998223604308 0.000142439041499795
-0.338345431149571 -0.507906768766282 2.05688146570101e-06 0.338228446016209 0.508449271252861 1.79977128248838e-06 0.337705998123921 0.507641945277573 -2.05688146570101e-06 -0.33758901299056 -0.508184447764152 -1.79977128248838e-06
-0.138379014596684 -0.220836564344622 -0.000466912092714129 0.1377064143574 0.221077219476109 -0.000431430887430786 0.138641524093744 0.220811624656851 0.000451228371538158 -0.137969180964643 -0.221052279788338 0.000446857498423544
0.0839894122195189 0.162167362967883 0.000101044302002562 -0.0837844954034984 -0.161984557627619 0.000101044302002562 -0.0838413167539884 -0.162666156723315 -9.95016409032862e-05 0.0836363999379679 0.162483351383051 -0.000102586963101838
0.118897261794297 0.273474732153743 -0.000408548081124862 -0.119006276511979 -0.273470618390812 -0.000402120326544547 -0.118571503192167 -0.273518697995072 0.000407262530208799 0.118680517909849 0.273514584232141 0.000403662987643823
0.110570748510956 0.338698186320939 -9.05027844908443e-05 -0.110766409360381 -0.338974836878076 -8.07325975287645e-05 -0.110036216440057 -0.3388167141154 8.61319113762297e-05 0.110231877289482 0.339093364672537 8.53605808265918e-05
6.22206643374555e-05 -5.50215792075019e-05 6.17064439710302e-05 8.20181484448277e-05 -4.11376293140201e-05 5.99066726885418e-05 -0.000160179644141466 9.66734288879473e-05 -6.27348847038807e-05 1.59408313591828e-05 -5.14220366425252e-07 -5.91353421389039e-05
1.28555091606313e-05 -0.000243483343502357 0.000121613116659572 -0.000217258104814669 -0.000110557378781429 0.000121613116659572 5.0136485726462e-05 0.000206973697486164 -0.000121613116659572 0.000154266109927576 0.000146809914614409 -0.000121613116659572
-0.000172006712569247 -0.000209030578951865 -9.51307677886716e-06 -0.00026148105632724 -0.00013806816838518 -8.9988564124419e-06 0.000162236525607167 0.000206973697486164 9.51307677886716e-06 0.00027125124328932 0.000140125049850881 8.9988564124419e-06
0.000102329852918625 1.72263822752459e-05 0.000288734735747779 -1.0284407328505e-05 6.91626392841964e-05 0.000285135193182802 -8.84459030251433e-05 -1.61979415423954e-05 -0.000286163633915653 -3.59954256497676e-06 -7.01910800170469e-05 -0.000287449184831716
-7.53332836812994e-05 -2.545390813805e-05 0.000410604962590564 -0.00018306245044739 8.33036993608908e-05 0.000407519640392012 9.35881066893958e-05 -4.37087311461464e-06 -0.000412661844056265 0.000164807627439293 -5.34789181082262e-05 -0.000405462758926311
1.82548230080964e-05 0.000104386734384326 3.21387729015782e-05 5.63071301235651e-05 4.67940533446979e-05 3.11103321687277e-05 -7.17337411163226e-05 -5.32218079250136e-05 -3.05961118023025e-05 -2.82821201533888e-06 -9.79589798040105e-05 -3.26529932680035e-05
0.000130869083255227 -2.9567671069452e-05 0.000404177208010248 -0.000221886088112496 -3.03390016190899e-05 0.000404948538559886 -7.19908512995352e-06 7.91899364294888e-05 -0.000405976979292736 9.82160899872231e-05 -1.92832637409469e-05 -0.000403148767277397
0.000106957836216452 -0.000103101183468263 -0.000133697295270565 -1.15699582445682e-05 -2.51967979548373e-05 -0.000132668854537715 -0.00010772916676609 0.0001018156325522 0.000136011286919479 1.2341288794206e-05 2.62252386876878e-05 0.000130354862888801
0.000172006712569247 -8.56176910098044e-05 0.000455085024286348 5.63071301235651e-05 -1.77406026416712e-05 0.000455085024286348 -0.000172263822752459 8.51034706433792e-05 -0.000455085024286348 -5.63071301235651e-05 1.82548230080964e-05 -0.000455085024286348
7.7647275330213e-05 -0.000118784904644233 0.000485166915722225 -3.08532219855151e-06 -5.93924523221166e-05 0.000484909805539012 -8.1761038261615e-05 0.000113642700979981 -0.0004846526953558 7.45619531316615e-06 6.47917661695817e-05 -0.000485424025905438
9.23025557733327e-05 0.000165321847805718 0.000549187351342169 9.71876492543726e-05 0.000162750745973592 0.000549187351342169 -0.000139610829484456 -0.00013806816838518 -0.000549187351342169 -4.98793755432494e-05 -0.000190004425394131 -0.000549187351342169
-0.000122641557392423 -6.99339698338342e-05 2.10830350234353e-05 7.71330549637878e-07 -8.97314539412064e-05 1.97974841073722e-05 1.2341288794206e-05 0.000109014717682153 -9.77018696207978e-06 0.000109528938048579 5.06507060928873e-05 -3.11103321687277e-05