-0.283883591537864 0 0 0 -0.283883591537864 0 0 0 0.0535629417995969
11.0958388723706 2.78607834204512 0 2.78607834204512 1.88327433444788 0 0 0 0.0436538277182885
7.01885665782378 1.7661597297467 0 1.7661597297467 1.07315800273762 0 0 0 0.0468723150002209
3.23062785716384 0.841338214046014 0 0.841338214046014 0.35483127313967 0 0 0 0.049898147785266
-3.54048061015918 -0.76725221350248 0 -0.76725221350248 -0.852948295623227 0 0 0 0.0573217940607008
-6.55296093344017 -1.47051997297204 0 -1.47051997297204 -1.3609883743513 0 0 0 0.060300640730034
-9.33484256625124 -2.11733031698361 0 -2.11733031698361 -1.81540428268705 0 0 0 0.0639372778510359
13.5127212379342 0 0 0 13.5127212379342 0 0 0 0.0335839883151762
8.48296266783507 0 0 0 8.48269923815158 0 0 0 0.0408316009413836
3.89533547194473 0 0 0 3.89533547194473 0 0 0 0.0474309567612585
-4.08522866154748 0 0 0 -4.08522866154748 0 0 0 0.060025471061254
-7.53959142534488 0 0 0 -7.53959142534488 0 0 0 0.0454536792920141
-10.6634530170608 0 0 0 -10.6634530170608 0 0 0 0.0522154567858641
13.5005597633777 0 0 0 13.5005597633777 0 0 0 0.117467631856946
8.47547022639088 0 0 0 8.47521557776466 0 0 0 0.0921828026906678
3.89179650201558 0 0 0 3.89179650201558 0 0 0 0.0713009070553169
-4.08221788755286 0 0 0 -4.08221788755286 0 0 0 0.0367340361434365
-7.53118292172681 0 0 0 -7.53118292172681 0 0 0 0.0227067715713719
-10.6571739749096 0 0 0 -10.6571739749096 0 0 0 -0.00489519872683867