
     Program PWSCF v.6.7MaX starts on 14Mar2023 at  1:55:30 

     This program is part of the open-source Quantum ESPRESSO suite
     for quantum simulation of materials; please cite
         "P. Giannozzi et al., J. Phys.:Condens. Matter 21 395502 (2009);
         "P. Giannozzi et al., J. Phys.:Condens. Matter 29 465901 (2017);
          URL http://www.quantum-espresso.org", 
     in publications or presentations arising from this work. More details at
     http://www.quantum-espresso.org/quote

     Parallel version (MPI), running on    16 processors

     MPI processes distributed on     1 nodes
     R & G space division:  proc/nbgrp/npool/nimage =      16
     Reading input from path2_cod-7.in

     Current dimensions of program PWSCF are:
     Max number of different atomic species (ntypx) = 10
     Max number of k-points (npk) =  40000
     Max angular momentum in pseudopotentials (lmaxx) =  3
     Message from routine read_pp_mesh:
     mesh size missing, using the one in header
     file Fe.pbe-spn-kjpaw_psl.0.2.1.UPF: wavefunction(s)  3D renormalized
     file O.pbe-n-kjpaw_psl.0.1.UPF: wavefunction(s)  2P renormalized

     Subspace diagonalization in iterative solution of the eigenvalue problem:
     a serial algorithm will be used


     Parallelization info
     --------------------
     sticks:   dense  smooth     PW     G-vecs:    dense   smooth      PW
     Min        1241     460    123                80927    18242    2559
     Max        1242     462    124                80930    18243    2562
     Sum       19863    7371   1983              1294859   291873   40977



     bravais-lattice index     =            0
     lattice parameter (alat)  =      19.6651  a.u.
     unit-cell volume          =    2160.3578 (a.u.)^3
     number of atoms/cell      =           25
     number of atomic types    =            4
     number of electrons       =       189.00
     number of Kohn-Sham states=          114
     kinetic-energy cutoff     =     100.0000  Ry
     charge density cutoff     =    1080.0000  Ry
     scf convergence threshold =      2.0E-10
     mixing beta               =       0.4000
     number of iterations used =            8  plain     mixing
     Exchange-correlation= PBE
                           (   1   4   3   4   0   0   0)

     celldm(1)=  19.665057  celldm(2)=   0.000000  celldm(3)=   0.000000
     celldm(4)=   0.000000  celldm(5)=   0.000000  celldm(6)=   0.000000

     crystal axes: (cart. coord. in units of alat)
               a(1) = (   1.000000   0.000000   0.000000 )  
               a(2) = (   0.000000   0.597590   0.000000 )  
               a(3) = (   0.000000   0.000000   0.475375 )  

     reciprocal axes: (cart. coord. in units 2 pi/alat)
               b(1) = (  1.000000  0.000000  0.000000 )  
               b(2) = (  0.000000  1.673388  0.000000 )  
               b(3) = (  0.000000  0.000000  2.103600 )  


     PseudoPot. # 1 for Fe read from file:
     /opt/QEpot/SSSP_precision_pseudos/Fe.pbe-spn-kjpaw_psl.0.2.1.UPF
     MD5 check sum: e86618425769142926afa95317d90200
     Pseudo is Projector augmented-wave + core cor, Zval = 16.0
     Generated using "atomic" code by A. Dal Corso  v.5.0.99 svn rev. 10869
     Shape of augmentation charge: PSQ
     Using radial grid of 1191 points,  6 beta functions with: 
                l(1) =   0
                l(2) =   0
                l(3) =   1
                l(4) =   1
                l(5) =   2
                l(6) =   2
     Q(r) pseudized with 0 coefficients 


     PseudoPot. # 2 for Na read from file:
     /opt/QEpot/SSSP_precision_pseudos/Na_ONCV_PBE-1.0.oncvpsp.upf
     MD5 check sum: 24a298df0a6742ae313db96548fdb2a4
     Pseudo is Norm-conserving, Zval =  9.0
     Generated using ONCVPSP code by D. R. Hamann
     Using radial grid of 1992 points,  4 beta functions with: 
                l(1) =   0
                l(2) =   0
                l(3) =   1
                l(4) =   1

     PseudoPot. # 3 for O  read from file:
     /opt/QEpot/SSSP_precision_pseudos/O.pbe-n-kjpaw_psl.0.1.UPF
     MD5 check sum: 0234752ac141de4415c5fc33072bef88
     Pseudo is Projector augmented-wave + core cor, Zval =  6.0
     Generated using "atomic" code by A. Dal Corso  v.5.0.99 svn rev. 10869
     Shape of augmentation charge: BESSEL
     Using radial grid of 1095 points,  4 beta functions with: 
                l(1) =   0
                l(2) =   0
                l(3) =   1
                l(4) =   1
     Q(r) pseudized with 0 coefficients 


     PseudoPot. # 4 for P  read from file:
     /opt/QEpot/SSSP_precision_pseudos/P.pbe-n-rrkjus_psl.1.0.0.UPF
     MD5 check sum: 8b930f418f0a4573dca56cd030ffe088
     Pseudo is Ultrasoft + core correction, Zval =  5.0
     Generated using "atomic" code by A. Dal Corso  v.5.1
     Using radial grid of 1147 points,  6 beta functions with: 
                l(1) =   0
                l(2) =   0
                l(3) =   1
                l(4) =   1
                l(5) =   2
                l(6) =   2
     Q(r) pseudized with 0 coefficients 


     atomic species   valence    mass     pseudopotential
        Fe            16.00    55.84500     Fe( 1.00)
        Na             9.00    22.98977     Na( 1.00)
        O              6.00    15.99940     O ( 1.00)
        P              5.00    30.97376     P ( 1.00)

     Starting magnetic structure 
     atomic species   magnetization
        Fe           0.312
        Na           0.000
        O            0.000
        P            0.000

     No symmetry found


                                    s                        frac. trans.

      isym =  1     identity                                     

 cryst.   s( 1) = (     1          0          0      )
                  (     0          1          0      )
                  (     0          0          1      )

 cart.    s( 1) = (  1.0000000  0.0000000  0.0000000 )
                  (  0.0000000  1.0000000  0.0000000 )
                  (  0.0000000  0.0000000  1.0000000 )


   Cartesian axes

     site n.     atom                  positions (alat units)
         1           Na  tau(   1) = (   0.4302318   0.0291428   0.1376246  )
         2           Fe  tau(   2) = (   0.2821328   0.3812155   0.4691968  )
         3           Fe  tau(   3) = (   0.1720778   0.1452002   0.2020001  )
         4           Fe  tau(   4) = (   0.7134703   0.1456170   0.0192345  )
         5           Fe  tau(   5) = (   0.7739451   0.4528625   0.2707177  )
         6           P   tau(   6) = (   0.0977170   0.4486692   0.2188867  )
         7           P   tau(   7) = (   0.4002322   0.1766645   0.3835841  )
         8           P   tau(   8) = (   0.8795126   0.1484160   0.2871106  )
         9           P   tau(   9) = (   0.5960816   0.4300434   0.0466563  )
        10           O   tau(  10) = (   0.1490264   0.4447032   0.3582541  )
        11           O   tau(  11) = (   0.3262332   0.1913616   0.0400555  )
        12           O   tau(  12) = (   0.8550695   0.1413581   0.1415723  )
        13           O   tau(  13) = (   0.6270131   0.4425707   0.3783255  )
        14           O   tau(  14) = (   0.4472933   0.4391197   0.0640867  )
        15           O   tau(  15) = (   0.0257234   0.1544297   0.3148301  )
        16           O   tau(  16) = (   0.5376640   0.1259622   0.4062409  )
        17           O   tau(  17) = (   0.9501211   0.4434196   0.2135122  )
        18           O   tau(  18) = (   0.1503959   0.5669391   0.1422581  )
        19           O   tau(  19) = (   0.3207885   0.0791351   0.3027013  )
        20           O   tau(  20) = (   0.8078729   0.2628191   0.3548869  )
        21           O   tau(  21) = (   0.6512202   0.3057409   0.1088218  )
        22           O   tau(  22) = (   0.8148559   0.0307314   0.3587673  )
        23           O   tau(  23) = (   0.6611698   0.5441305   0.1237307  )
        24           O   tau(  24) = (   0.1555120   0.3301035   0.1416876  )
        25           O   tau(  25) = (   0.3870033   0.3107592   0.3207176  )

   Crystallographic axes

     site n.     atom                  positions (cryst. coord.)
         1           Na  tau(   1) = (  0.4302318  0.0487672  0.2895072  )
         2           Fe  tau(   2) = (  0.2821328  0.6379217  0.9870026  )
         3           Fe  tau(   3) = (  0.1720778  0.2429763  0.4249275  )
         4           Fe  tau(   4) = (  0.7134703  0.2436737  0.0404617  )
         5           Fe  tau(   5) = (  0.7739451  0.7578148  0.5694819  )
         6           P   tau(   6) = (  0.0977170  0.7507977  0.4604501  )
         7           P   tau(   7) = (  0.4002322  0.2956283  0.8069076  )
         8           P   tau(   8) = (  0.8795126  0.2483576  0.6039660  )
         9           P   tau(   9) = (  0.5960816  0.7196296  0.0981462  )
        10           O   tau(  10) = (  0.1490264  0.7441611  0.7536234  )
        11           O   tau(  11) = (  0.3262332  0.3202222  0.0842607  )
        12           O   tau(  12) = (  0.8550695  0.2365470  0.2978114  )
        13           O   tau(  13) = (  0.6270131  0.7405926  0.7958457  )
        14           O   tau(  14) = (  0.4472933  0.7348178  0.1348129  )
        15           O   tau(  15) = (  0.0257234  0.2584208  0.6622768  )
        16           O   tau(  16) = (  0.5376640  0.2107836  0.8545685  )
        17           O   tau(  17) = (  0.9501211  0.7420132  0.4491444  )
        18           O   tau(  18) = (  0.1503959  0.9487093  0.2992542  )
        19           O   tau(  19) = (  0.3207885  0.1324238  0.6367626  )
        20           O   tau(  20) = (  0.8078729  0.4397984  0.7465401  )
        21           O   tau(  21) = (  0.6512202  0.5116233  0.2289176  )
        22           O   tau(  22) = (  0.8148559  0.0514255  0.7547030  )
        23           O   tau(  23) = (  0.6611698  0.9105416  0.2602800  )
        24           O   tau(  24) = (  0.1555120  0.5523913  0.2980540  )
        25           O   tau(  25) = (  0.3870033  0.5200208  0.6746616  )

     number of k points=   158  Marzari-Vanderbilt smearing, width (Ry)=  0.0073
                       cart. coord. in units 2pi/alat
        k(    1) = (   0.0000000   0.0000000   0.0000000), wk =   0.0031746
        k(    2) = (   0.0000000   0.0000000   0.2337334), wk =   0.0063492
        k(    3) = (   0.0000000   0.0000000   0.4674667), wk =   0.0063492
        k(    4) = (   0.0000000   0.0000000   0.7012001), wk =   0.0063492
        k(    5) = (   0.0000000   0.0000000   0.9349334), wk =   0.0063492
        k(    6) = (   0.0000000   0.2390555   0.0000000), wk =   0.0063492
        k(    7) = (   0.0000000   0.2390555   0.2337334), wk =   0.0063492
        k(    8) = (   0.0000000   0.2390555   0.4674667), wk =   0.0063492
        k(    9) = (   0.0000000   0.2390555   0.7012001), wk =   0.0063492
        k(   10) = (   0.0000000   0.2390555   0.9349334), wk =   0.0063492
        k(   11) = (   0.0000000   0.4781110   0.0000000), wk =   0.0063492
        k(   12) = (   0.0000000   0.4781110   0.2337334), wk =   0.0063492
        k(   13) = (   0.0000000   0.4781110   0.4674667), wk =   0.0063492
        k(   14) = (   0.0000000   0.4781110   0.7012001), wk =   0.0063492
        k(   15) = (   0.0000000   0.4781110   0.9349334), wk =   0.0063492
        k(   16) = (   0.0000000   0.7171664   0.0000000), wk =   0.0063492
        k(   17) = (   0.0000000   0.7171664   0.2337334), wk =   0.0063492
        k(   18) = (   0.0000000   0.7171664   0.4674667), wk =   0.0063492
        k(   19) = (   0.0000000   0.7171664   0.7012001), wk =   0.0063492
        k(   20) = (   0.0000000   0.7171664   0.9349334), wk =   0.0063492
        k(   21) = (   0.2000000   0.0000000   0.0000000), wk =   0.0063492
        k(   22) = (   0.2000000   0.0000000   0.2337334), wk =   0.0063492
        k(   23) = (   0.2000000   0.0000000   0.4674667), wk =   0.0063492
        k(   24) = (   0.2000000   0.0000000   0.7012001), wk =   0.0063492
        k(   25) = (   0.2000000   0.0000000   0.9349334), wk =   0.0063492
        k(   26) = (   0.2000000   0.2390555   0.0000000), wk =   0.0063492
        k(   27) = (   0.2000000   0.2390555   0.2337334), wk =   0.0063492
        k(   28) = (   0.2000000   0.2390555   0.4674667), wk =   0.0063492
        k(   29) = (   0.2000000   0.2390555   0.7012001), wk =   0.0063492
        k(   30) = (   0.2000000   0.2390555   0.9349334), wk =   0.0063492
        k(   31) = (   0.2000000   0.4781110   0.0000000), wk =   0.0063492
        k(   32) = (   0.2000000   0.4781110   0.2337334), wk =   0.0063492
        k(   33) = (   0.2000000   0.4781110   0.4674667), wk =   0.0063492
        k(   34) = (   0.2000000   0.4781110   0.7012001), wk =   0.0063492
        k(   35) = (   0.2000000   0.4781110   0.9349334), wk =   0.0063492
        k(   36) = (   0.2000000   0.7171664   0.0000000), wk =   0.0063492
        k(   37) = (   0.2000000   0.7171664   0.2337334), wk =   0.0063492
        k(   38) = (   0.2000000   0.7171664   0.4674667), wk =   0.0063492
        k(   39) = (   0.2000000   0.7171664   0.7012001), wk =   0.0063492
        k(   40) = (   0.2000000   0.7171664   0.9349334), wk =   0.0063492
        k(   41) = (   0.4000000   0.0000000   0.0000000), wk =   0.0063492
        k(   42) = (   0.4000000   0.0000000   0.2337334), wk =   0.0063492
        k(   43) = (   0.4000000   0.0000000   0.4674667), wk =   0.0063492
        k(   44) = (   0.4000000   0.0000000   0.7012001), wk =   0.0063492
        k(   45) = (   0.4000000   0.0000000   0.9349334), wk =   0.0063492
        k(   46) = (   0.4000000   0.2390555   0.0000000), wk =   0.0063492
        k(   47) = (   0.4000000   0.2390555   0.2337334), wk =   0.0063492
        k(   48) = (   0.4000000   0.2390555   0.4674667), wk =   0.0063492
        k(   49) = (   0.4000000   0.2390555   0.7012001), wk =   0.0063492
        k(   50) = (   0.4000000   0.2390555   0.9349334), wk =   0.0063492
        k(   51) = (   0.4000000   0.4781110   0.0000000), wk =   0.0063492
        k(   52) = (   0.4000000   0.4781110   0.2337334), wk =   0.0063492
        k(   53) = (   0.4000000   0.4781110   0.4674667), wk =   0.0063492
        k(   54) = (   0.4000000   0.4781110   0.7012001), wk =   0.0063492
        k(   55) = (   0.4000000   0.4781110   0.9349334), wk =   0.0063492
        k(   56) = (   0.4000000   0.7171664   0.0000000), wk =   0.0063492
        k(   57) = (   0.4000000   0.7171664   0.2337334), wk =   0.0063492
        k(   58) = (   0.4000000   0.7171664   0.4674667), wk =   0.0063492
        k(   59) = (   0.4000000   0.7171664   0.7012001), wk =   0.0063492
        k(   60) = (   0.4000000   0.7171664   0.9349334), wk =   0.0063492
        k(   61) = (   0.0000000  -0.2390555   0.2337334), wk =   0.0063492
        k(   62) = (   0.0000000  -0.2390555   0.4674667), wk =   0.0063492
        k(   63) = (   0.0000000  -0.2390555   0.7012001), wk =   0.0063492
        k(   64) = (   0.0000000  -0.2390555   0.9349334), wk =   0.0063492
        k(   65) = (   0.0000000  -0.4781110   0.2337334), wk =   0.0063492
        k(   66) = (   0.0000000  -0.4781110   0.4674667), wk =   0.0063492
        k(   67) = (   0.0000000  -0.4781110   0.7012001), wk =   0.0063492
        k(   68) = (   0.0000000  -0.4781110   0.9349334), wk =   0.0063492
        k(   69) = (   0.0000000  -0.7171664   0.2337334), wk =   0.0063492
        k(   70) = (   0.0000000  -0.7171664   0.4674667), wk =   0.0063492
        k(   71) = (   0.0000000  -0.7171664   0.7012001), wk =   0.0063492
        k(   72) = (   0.0000000  -0.7171664   0.9349334), wk =   0.0063492
        k(   73) = (  -0.2000000   0.0000000   0.2337334), wk =   0.0063492
        k(   74) = (  -0.2000000   0.0000000   0.4674667), wk =   0.0063492
        k(   75) = (  -0.2000000   0.0000000   0.7012001), wk =   0.0063492
        k(   76) = (  -0.2000000   0.0000000   0.9349334), wk =   0.0063492
        k(   77) = (  -0.2000000   0.2390555   0.0000000), wk =   0.0063492
        k(   78) = (  -0.2000000  -0.2390555   0.2337334), wk =   0.0063492
        k(   79) = (  -0.2000000   0.2390555  -0.2337334), wk =   0.0063492
        k(   80) = (   0.2000000  -0.2390555  -0.2337334), wk =   0.0063492
        k(   81) = (  -0.2000000  -0.2390555   0.4674667), wk =   0.0063492
        k(   82) = (  -0.2000000   0.2390555  -0.4674667), wk =   0.0063492
        k(   83) = (   0.2000000  -0.2390555  -0.4674667), wk =   0.0063492
        k(   84) = (  -0.2000000  -0.2390555   0.7012001), wk =   0.0063492
        k(   85) = (  -0.2000000   0.2390555  -0.7012001), wk =   0.0063492
        k(   86) = (   0.2000000  -0.2390555  -0.7012001), wk =   0.0063492
        k(   87) = (  -0.2000000  -0.2390555   0.9349334), wk =   0.0063492
        k(   88) = (  -0.2000000   0.2390555  -0.9349334), wk =   0.0063492
        k(   89) = (   0.2000000  -0.2390555  -0.9349334), wk =   0.0063492
        k(   90) = (  -0.2000000   0.4781110   0.0000000), wk =   0.0063492
        k(   91) = (  -0.2000000  -0.4781110   0.2337334), wk =   0.0063492
        k(   92) = (  -0.2000000   0.4781110  -0.2337334), wk =   0.0063492
        k(   93) = (   0.2000000  -0.4781110  -0.2337334), wk =   0.0063492
        k(   94) = (  -0.2000000  -0.4781110   0.4674667), wk =   0.0063492
        k(   95) = (  -0.2000000   0.4781110  -0.4674667), wk =   0.0063492
        k(   96) = (   0.2000000  -0.4781110  -0.4674667), wk =   0.0063492
        k(   97) = (  -0.2000000  -0.4781110   0.7012001), wk =   0.0063492
        k(   98) = (  -0.2000000   0.4781110  -0.7012001), wk =   0.0063492
        k(   99) = (   0.2000000  -0.4781110  -0.7012001), wk =   0.0063492
        k(  100) = (  -0.2000000  -0.4781110   0.9349334), wk =   0.0063492
        k(  101) = (  -0.2000000   0.4781110  -0.9349334), wk =   0.0063492
        k(  102) = (   0.2000000  -0.4781110  -0.9349334), wk =   0.0063492
        k(  103) = (  -0.2000000   0.7171664   0.0000000), wk =   0.0063492
        k(  104) = (  -0.2000000  -0.7171664   0.2337334), wk =   0.0063492
        k(  105) = (  -0.2000000   0.7171664  -0.2337334), wk =   0.0063492
        k(  106) = (   0.2000000  -0.7171664  -0.2337334), wk =   0.0063492
        k(  107) = (  -0.2000000  -0.7171664   0.4674667), wk =   0.0063492
        k(  108) = (  -0.2000000   0.7171664  -0.4674667), wk =   0.0063492
        k(  109) = (   0.2000000  -0.7171664  -0.4674667), wk =   0.0063492
        k(  110) = (  -0.2000000  -0.7171664   0.7012001), wk =   0.0063492
        k(  111) = (  -0.2000000   0.7171664  -0.7012001), wk =   0.0063492
        k(  112) = (   0.2000000  -0.7171664  -0.7012001), wk =   0.0063492
        k(  113) = (  -0.2000000  -0.7171664   0.9349334), wk =   0.0063492
        k(  114) = (  -0.2000000   0.7171664  -0.9349334), wk =   0.0063492
        k(  115) = (   0.2000000  -0.7171664  -0.9349334), wk =   0.0063492
        k(  116) = (  -0.4000000   0.0000000   0.2337334), wk =   0.0063492
        k(  117) = (  -0.4000000   0.0000000   0.4674667), wk =   0.0063492
        k(  118) = (  -0.4000000   0.0000000   0.7012001), wk =   0.0063492
        k(  119) = (  -0.4000000   0.0000000   0.9349334), wk =   0.0063492
        k(  120) = (  -0.4000000   0.2390555   0.0000000), wk =   0.0063492
        k(  121) = (  -0.4000000  -0.2390555   0.2337334), wk =   0.0063492
        k(  122) = (  -0.4000000   0.2390555  -0.2337334), wk =   0.0063492
        k(  123) = (   0.4000000  -0.2390555  -0.2337334), wk =   0.0063492
        k(  124) = (  -0.4000000  -0.2390555   0.4674667), wk =   0.0063492
        k(  125) = (  -0.4000000   0.2390555  -0.4674667), wk =   0.0063492
        k(  126) = (   0.4000000  -0.2390555  -0.4674667), wk =   0.0063492
        k(  127) = (  -0.4000000  -0.2390555   0.7012001), wk =   0.0063492
        k(  128) = (  -0.4000000   0.2390555  -0.7012001), wk =   0.0063492
        k(  129) = (   0.4000000  -0.2390555  -0.7012001), wk =   0.0063492
        k(  130) = (  -0.4000000  -0.2390555   0.9349334), wk =   0.0063492
        k(  131) = (  -0.4000000   0.2390555  -0.9349334), wk =   0.0063492
        k(  132) = (   0.4000000  -0.2390555  -0.9349334), wk =   0.0063492
        k(  133) = (  -0.4000000   0.4781110   0.0000000), wk =   0.0063492
        k(  134) = (  -0.4000000  -0.4781110   0.2337334), wk =   0.0063492
        k(  135) = (  -0.4000000   0.4781110  -0.2337334), wk =   0.0063492
        k(  136) = (   0.4000000  -0.4781110  -0.2337334), wk =   0.0063492
        k(  137) = (  -0.4000000  -0.4781110   0.4674667), wk =   0.0063492
        k(  138) = (  -0.4000000   0.4781110  -0.4674667), wk =   0.0063492
        k(  139) = (   0.4000000  -0.4781110  -0.4674667), wk =   0.0063492
        k(  140) = (  -0.4000000  -0.4781110   0.7012001), wk =   0.0063492
        k(  141) = (  -0.4000000   0.4781110  -0.7012001), wk =   0.0063492
        k(  142) = (   0.4000000  -0.4781110  -0.7012001), wk =   0.0063492
        k(  143) = (  -0.4000000  -0.4781110   0.9349334), wk =   0.0063492
        k(  144) = (  -0.4000000   0.4781110  -0.9349334), wk =   0.0063492
        k(  145) = (   0.4000000  -0.4781110  -0.9349334), wk =   0.0063492
        k(  146) = (  -0.4000000   0.7171664   0.0000000), wk =   0.0063492
        k(  147) = (  -0.4000000  -0.7171664   0.2337334), wk =   0.0063492
        k(  148) = (  -0.4000000   0.7171664  -0.2337334), wk =   0.0063492
        k(  149) = (   0.4000000  -0.7171664  -0.2337334), wk =   0.0063492
        k(  150) = (  -0.4000000  -0.7171664   0.4674667), wk =   0.0063492
        k(  151) = (  -0.4000000   0.7171664  -0.4674667), wk =   0.0063492
        k(  152) = (   0.4000000  -0.7171664  -0.4674667), wk =   0.0063492
        k(  153) = (  -0.4000000  -0.7171664   0.7012001), wk =   0.0063492
        k(  154) = (  -0.4000000   0.7171664  -0.7012001), wk =   0.0063492
        k(  155) = (   0.4000000  -0.7171664  -0.7012001), wk =   0.0063492
        k(  156) = (  -0.4000000  -0.7171664   0.9349334), wk =   0.0063492
        k(  157) = (  -0.4000000   0.7171664  -0.9349334), wk =   0.0063492
        k(  158) = (   0.4000000  -0.7171664  -0.9349334), wk =   0.0063492

                       cryst. coord.
        k(    1) = (   0.0000000   0.0000000   0.0000000), wk =   0.0031746
        k(    2) = (   0.0000000   0.0000000   0.1111111), wk =   0.0063492
        k(    3) = (   0.0000000   0.0000000   0.2222222), wk =   0.0063492
        k(    4) = (   0.0000000   0.0000000   0.3333333), wk =   0.0063492
        k(    5) = (   0.0000000   0.0000000   0.4444444), wk =   0.0063492
        k(    6) = (   0.0000000   0.1428571   0.0000000), wk =   0.0063492
        k(    7) = (   0.0000000   0.1428571   0.1111111), wk =   0.0063492
        k(    8) = (   0.0000000   0.1428571   0.2222222), wk =   0.0063492
        k(    9) = (   0.0000000   0.1428571   0.3333333), wk =   0.0063492
        k(   10) = (   0.0000000   0.1428571   0.4444444), wk =   0.0063492
        k(   11) = (   0.0000000   0.2857143   0.0000000), wk =   0.0063492
        k(   12) = (   0.0000000   0.2857143   0.1111111), wk =   0.0063492
        k(   13) = (   0.0000000   0.2857143   0.2222222), wk =   0.0063492
        k(   14) = (   0.0000000   0.2857143   0.3333333), wk =   0.0063492
        k(   15) = (   0.0000000   0.2857143   0.4444444), wk =   0.0063492
        k(   16) = (   0.0000000   0.4285714   0.0000000), wk =   0.0063492
        k(   17) = (   0.0000000   0.4285714   0.1111111), wk =   0.0063492
        k(   18) = (   0.0000000   0.4285714   0.2222222), wk =   0.0063492
        k(   19) = (   0.0000000   0.4285714   0.3333333), wk =   0.0063492
        k(   20) = (   0.0000000   0.4285714   0.4444444), wk =   0.0063492
        k(   21) = (   0.2000000   0.0000000   0.0000000), wk =   0.0063492
        k(   22) = (   0.2000000   0.0000000   0.1111111), wk =   0.0063492
        k(   23) = (   0.2000000   0.0000000   0.2222222), wk =   0.0063492
        k(   24) = (   0.2000000   0.0000000   0.3333333), wk =   0.0063492
        k(   25) = (   0.2000000   0.0000000   0.4444444), wk =   0.0063492
        k(   26) = (   0.2000000   0.1428571   0.0000000), wk =   0.0063492
        k(   27) = (   0.2000000   0.1428571   0.1111111), wk =   0.0063492
        k(   28) = (   0.2000000   0.1428571   0.2222222), wk =   0.0063492
        k(   29) = (   0.2000000   0.1428571   0.3333333), wk =   0.0063492
        k(   30) = (   0.2000000   0.1428571   0.4444444), wk =   0.0063492
        k(   31) = (   0.2000000   0.2857143   0.0000000), wk =   0.0063492
        k(   32) = (   0.2000000   0.2857143   0.1111111), wk =   0.0063492
        k(   33) = (   0.2000000   0.2857143   0.2222222), wk =   0.0063492
        k(   34) = (   0.2000000   0.2857143   0.3333333), wk =   0.0063492
        k(   35) = (   0.2000000   0.2857143   0.4444444), wk =   0.0063492
        k(   36) = (   0.2000000   0.4285714   0.0000000), wk =   0.0063492
        k(   37) = (   0.2000000   0.4285714   0.1111111), wk =   0.0063492
        k(   38) = (   0.2000000   0.4285714   0.2222222), wk =   0.0063492
        k(   39) = (   0.2000000   0.4285714   0.3333333), wk =   0.0063492
        k(   40) = (   0.2000000   0.4285714   0.4444444), wk =   0.0063492
        k(   41) = (   0.4000000   0.0000000   0.0000000), wk =   0.0063492
        k(   42) = (   0.4000000   0.0000000   0.1111111), wk =   0.0063492
        k(   43) = (   0.4000000   0.0000000   0.2222222), wk =   0.0063492
        k(   44) = (   0.4000000   0.0000000   0.3333333), wk =   0.0063492
        k(   45) = (   0.4000000   0.0000000   0.4444444), wk =   0.0063492
        k(   46) = (   0.4000000   0.1428571   0.0000000), wk =   0.0063492
        k(   47) = (   0.4000000   0.1428571   0.1111111), wk =   0.0063492
        k(   48) = (   0.4000000   0.1428571   0.2222222), wk =   0.0063492
        k(   49) = (   0.4000000   0.1428571   0.3333333), wk =   0.0063492
        k(   50) = (   0.4000000   0.1428571   0.4444444), wk =   0.0063492
        k(   51) = (   0.4000000   0.2857143   0.0000000), wk =   0.0063492
        k(   52) = (   0.4000000   0.2857143   0.1111111), wk =   0.0063492
        k(   53) = (   0.4000000   0.2857143   0.2222222), wk =   0.0063492
        k(   54) = (   0.4000000   0.2857143   0.3333333), wk =   0.0063492
        k(   55) = (   0.4000000   0.2857143   0.4444444), wk =   0.0063492
        k(   56) = (   0.4000000   0.4285714   0.0000000), wk =   0.0063492
        k(   57) = (   0.4000000   0.4285714   0.1111111), wk =   0.0063492
        k(   58) = (   0.4000000   0.4285714   0.2222222), wk =   0.0063492
        k(   59) = (   0.4000000   0.4285714   0.3333333), wk =   0.0063492
        k(   60) = (   0.4000000   0.4285714   0.4444444), wk =   0.0063492
        k(   61) = (   0.0000000  -0.1428571   0.1111111), wk =   0.0063492
        k(   62) = (   0.0000000  -0.1428571   0.2222222), wk =   0.0063492
        k(   63) = (   0.0000000  -0.1428571   0.3333333), wk =   0.0063492
        k(   64) = (   0.0000000  -0.1428571   0.4444444), wk =   0.0063492
        k(   65) = (   0.0000000  -0.2857143   0.1111111), wk =   0.0063492
        k(   66) = (   0.0000000  -0.2857143   0.2222222), wk =   0.0063492
        k(   67) = (   0.0000000  -0.2857143   0.3333333), wk =   0.0063492
        k(   68) = (   0.0000000  -0.2857143   0.4444444), wk =   0.0063492
        k(   69) = (   0.0000000  -0.4285714   0.1111111), wk =   0.0063492
        k(   70) = (   0.0000000  -0.4285714   0.2222222), wk =   0.0063492
        k(   71) = (   0.0000000  -0.4285714   0.3333333), wk =   0.0063492
        k(   72) = (   0.0000000  -0.4285714   0.4444444), wk =   0.0063492
        k(   73) = (  -0.2000000   0.0000000   0.1111111), wk =   0.0063492
        k(   74) = (  -0.2000000   0.0000000   0.2222222), wk =   0.0063492
        k(   75) = (  -0.2000000   0.0000000   0.3333333), wk =   0.0063492
        k(   76) = (  -0.2000000   0.0000000   0.4444444), wk =   0.0063492
        k(   77) = (  -0.2000000   0.1428571   0.0000000), wk =   0.0063492
        k(   78) = (  -0.2000000  -0.1428571   0.1111111), wk =   0.0063492
        k(   79) = (  -0.2000000   0.1428571  -0.1111111), wk =   0.0063492
        k(   80) = (   0.2000000  -0.1428571  -0.1111111), wk =   0.0063492
        k(   81) = (  -0.2000000  -0.1428571   0.2222222), wk =   0.0063492
        k(   82) = (  -0.2000000   0.1428571  -0.2222222), wk =   0.0063492
        k(   83) = (   0.2000000  -0.1428571  -0.2222222), wk =   0.0063492
        k(   84) = (  -0.2000000  -0.1428571   0.3333333), wk =   0.0063492
        k(   85) = (  -0.2000000   0.1428571  -0.3333333), wk =   0.0063492
        k(   86) = (   0.2000000  -0.1428571  -0.3333333), wk =   0.0063492
        k(   87) = (  -0.2000000  -0.1428571   0.4444444), wk =   0.0063492
        k(   88) = (  -0.2000000   0.1428571  -0.4444444), wk =   0.0063492
        k(   89) = (   0.2000000  -0.1428571  -0.4444444), wk =   0.0063492
        k(   90) = (  -0.2000000   0.2857143   0.0000000), wk =   0.0063492
        k(   91) = (  -0.2000000  -0.2857143   0.1111111), wk =   0.0063492
        k(   92) = (  -0.2000000   0.2857143  -0.1111111), wk =   0.0063492
        k(   93) = (   0.2000000  -0.2857143  -0.1111111), wk =   0.0063492
        k(   94) = (  -0.2000000  -0.2857143   0.2222222), wk =   0.0063492
        k(   95) = (  -0.2000000   0.2857143  -0.2222222), wk =   0.0063492
        k(   96) = (   0.2000000  -0.2857143  -0.2222222), wk =   0.0063492
        k(   97) = (  -0.2000000  -0.2857143   0.3333333), wk =   0.0063492
        k(   98) = (  -0.2000000   0.2857143  -0.3333333), wk =   0.0063492
        k(   99) = (   0.2000000  -0.2857143  -0.3333333), wk =   0.0063492
        k(  100) = (  -0.2000000  -0.2857143   0.4444444), wk =   0.0063492
        k(  101) = (  -0.2000000   0.2857143  -0.4444444), wk =   0.0063492
        k(  102) = (   0.2000000  -0.2857143  -0.4444444), wk =   0.0063492
        k(  103) = (  -0.2000000   0.4285714   0.0000000), wk =   0.0063492
        k(  104) = (  -0.2000000  -0.4285714   0.1111111), wk =   0.0063492
        k(  105) = (  -0.2000000   0.4285714  -0.1111111), wk =   0.0063492
        k(  106) = (   0.2000000  -0.4285714  -0.1111111), wk =   0.0063492
        k(  107) = (  -0.2000000  -0.4285714   0.2222222), wk =   0.0063492
        k(  108) = (  -0.2000000   0.4285714  -0.2222222), wk =   0.0063492
        k(  109) = (   0.2000000  -0.4285714  -0.2222222), wk =   0.0063492
        k(  110) = (  -0.2000000  -0.4285714   0.3333333), wk =   0.0063492
        k(  111) = (  -0.2000000   0.4285714  -0.3333333), wk =   0.0063492
        k(  112) = (   0.2000000  -0.4285714  -0.3333333), wk =   0.0063492
        k(  113) = (  -0.2000000  -0.4285714   0.4444444), wk =   0.0063492
        k(  114) = (  -0.2000000   0.4285714  -0.4444444), wk =   0.0063492
        k(  115) = (   0.2000000  -0.4285714  -0.4444444), wk =   0.0063492
        k(  116) = (  -0.4000000   0.0000000   0.1111111), wk =   0.0063492
        k(  117) = (  -0.4000000   0.0000000   0.2222222), wk =   0.0063492
        k(  118) = (  -0.4000000   0.0000000   0.3333333), wk =   0.0063492
        k(  119) = (  -0.4000000   0.0000000   0.4444444), wk =   0.0063492
        k(  120) = (  -0.4000000   0.1428571   0.0000000), wk =   0.0063492
        k(  121) = (  -0.4000000  -0.1428571   0.1111111), wk =   0.0063492
        k(  122) = (  -0.4000000   0.1428571  -0.1111111), wk =   0.0063492
        k(  123) = (   0.4000000  -0.1428571  -0.1111111), wk =   0.0063492
        k(  124) = (  -0.4000000  -0.1428571   0.2222222), wk =   0.0063492
        k(  125) = (  -0.4000000   0.1428571  -0.2222222), wk =   0.0063492
        k(  126) = (   0.4000000  -0.1428571  -0.2222222), wk =   0.0063492
        k(  127) = (  -0.4000000  -0.1428571   0.3333333), wk =   0.0063492
        k(  128) = (  -0.4000000   0.1428571  -0.3333333), wk =   0.0063492
        k(  129) = (   0.4000000  -0.1428571  -0.3333333), wk =   0.0063492
        k(  130) = (  -0.4000000  -0.1428571   0.4444444), wk =   0.0063492
        k(  131) = (  -0.4000000   0.1428571  -0.4444444), wk =   0.0063492
        k(  132) = (   0.4000000  -0.1428571  -0.4444444), wk =   0.0063492
        k(  133) = (  -0.4000000   0.2857143   0.0000000), wk =   0.0063492
        k(  134) = (  -0.4000000  -0.2857143   0.1111111), wk =   0.0063492
        k(  135) = (  -0.4000000   0.2857143  -0.1111111), wk =   0.0063492
        k(  136) = (   0.4000000  -0.2857143  -0.1111111), wk =   0.0063492
        k(  137) = (  -0.4000000  -0.2857143   0.2222222), wk =   0.0063492
        k(  138) = (  -0.4000000   0.2857143  -0.2222222), wk =   0.0063492
        k(  139) = (   0.4000000  -0.2857143  -0.2222222), wk =   0.0063492
        k(  140) = (  -0.4000000  -0.2857143   0.3333333), wk =   0.0063492
        k(  141) = (  -0.4000000   0.2857143  -0.3333333), wk =   0.0063492
        k(  142) = (   0.4000000  -0.2857143  -0.3333333), wk =   0.0063492
        k(  143) = (  -0.4000000  -0.2857143   0.4444444), wk =   0.0063492
        k(  144) = (  -0.4000000   0.2857143  -0.4444444), wk =   0.0063492
        k(  145) = (   0.4000000  -0.2857143  -0.4444444), wk =   0.0063492
        k(  146) = (  -0.4000000   0.4285714   0.0000000), wk =   0.0063492
        k(  147) = (  -0.4000000  -0.4285714   0.1111111), wk =   0.0063492
        k(  148) = (  -0.4000000   0.4285714  -0.1111111), wk =   0.0063492
        k(  149) = (   0.4000000  -0.4285714  -0.1111111), wk =   0.0063492
        k(  150) = (  -0.4000000  -0.4285714   0.2222222), wk =   0.0063492
        k(  151) = (  -0.4000000   0.4285714  -0.2222222), wk =   0.0063492
        k(  152) = (   0.4000000  -0.4285714  -0.2222222), wk =   0.0063492
        k(  153) = (  -0.4000000  -0.4285714   0.3333333), wk =   0.0063492
        k(  154) = (  -0.4000000   0.4285714  -0.3333333), wk =   0.0063492
        k(  155) = (   0.4000000  -0.4285714  -0.3333333), wk =   0.0063492
        k(  156) = (  -0.4000000  -0.4285714   0.4444444), wk =   0.0063492
        k(  157) = (  -0.4000000   0.4285714  -0.4444444), wk =   0.0063492
        k(  158) = (   0.4000000  -0.4285714  -0.4444444), wk =   0.0063492

     Dense  grid:  1294859 G-vectors     FFT dimensions: ( 216, 125, 100)

     Smooth grid:   291873 G-vectors     FFT dimensions: ( 125,  75,  60)

     Dynamical RAM for                 wfc:       3.97 MB

     Dynamical RAM for     wfc (w. buffer):    1257.24 MB

     Dynamical RAM for           str. fact:       4.94 MB

     Dynamical RAM for           local pot:       0.00 MB

     Dynamical RAM for          nlocal pot:       9.74 MB

     Dynamical RAM for                qrad:      10.54 MB

     Dynamical RAM for          rho,v,vnew:      16.06 MB

     Dynamical RAM for               rhoin:       5.35 MB

     Dynamical RAM for            rho*nmix:      39.52 MB

     Dynamical RAM for           G-vectors:       4.77 MB

     Dynamical RAM for          h,s,v(r/c):       2.38 MB

     Dynamical RAM for          <psi|beta>:       0.49 MB

     Dynamical RAM for                 psi:       7.93 MB

     Dynamical RAM for                hpsi:       7.93 MB

     Dynamical RAM for                spsi:       7.93 MB

     Dynamical RAM for      wfcinit/wfcrot:       9.96 MB

     Dynamical RAM for           addusdens:     250.68 MB

     Dynamical RAM for          addusforce:     287.85 MB

     Dynamical RAM for         addusstress:     250.06 MB

     Estimated static dynamical RAM per process >       1.33 GB

     Estimated max dynamical RAM per process >       1.61 GB

     Estimated total dynamical RAM >      25.79 GB

     Check: negative core charge=   -0.000003
     Generating pointlists ...
     new r_m :   0.0752 (alat units)  1.4797 (a.u.) for type    1
     new r_m :   0.0834 (alat units)  1.6405 (a.u.) for type    2
     new r_m :   0.0609 (alat units)  1.1967 (a.u.) for type    3
     new r_m :   0.0609 (alat units)  1.1967 (a.u.) for type    4

     Initial potential from superposition of free atoms

     starting charge  188.99132, renormalised to  189.00000
     Starting wfcs are  137 randomized atomic wfcs
     Checking if some PAW data can be deallocated... 
       PAW data deallocated on   13 nodes for type:  1
       PAW data deallocated on    4 nodes for type:  3

     total cpu time spent up to now is       85.1 secs

     Self-consistent Calculation

     iteration #  1     ecut=   100.00 Ry     beta= 0.40
     Davidson diagonalization with overlap
     ethr =  1.00E-02,  avg # of iterations =  3.0

     negative rho (up, down):  0.000E+00 9.263E-05

     total cpu time spent up to now is      329.9 secs

     total energy              =   -2123.86998737 Ry
     estimated scf accuracy    <       6.92391431 Ry

     total magnetization       =    19.00 Bohr mag/cell
     absolute magnetization    =    19.00 Bohr mag/cell

     iteration #  2     ecut=   100.00 Ry     beta= 0.40
     Davidson diagonalization with overlap
     ethr =  3.66E-03,  avg # of iterations =  2.0

     negative rho (up, down):  0.000E+00 4.546E-05

     total cpu time spent up to now is      554.3 secs

     total energy              =   -2121.09646049 Ry
     estimated scf accuracy    <      35.72249321 Ry

     total magnetization       =     8.72 Bohr mag/cell
     absolute magnetization    =    10.60 Bohr mag/cell

     iteration #  3     ecut=   100.00 Ry     beta= 0.40
     Davidson diagonalization with overlap
     ethr =  3.66E-03,  avg # of iterations =  3.2

     negative rho (up, down):  0.000E+00 2.830E-05

     total cpu time spent up to now is      760.9 secs

     total energy              =   -2123.32319669 Ry
     estimated scf accuracy    <      79.32842240 Ry

     total magnetization       =     1.00 Bohr mag/cell
     absolute magnetization    =     4.98 Bohr mag/cell

     iteration #  4     ecut=   100.00 Ry     beta= 0.40
     Davidson diagonalization with overlap
     ethr =  3.66E-03,  avg # of iterations =  2.0

     negative rho (up, down):  0.000E+00 1.234E-04

     total cpu time spent up to now is      953.3 secs

     total energy              =   -2125.96241452 Ry
     estimated scf accuracy    <       1.82095724 Ry

     total magnetization       =    19.00 Bohr mag/cell
     absolute magnetization    =    19.00 Bohr mag/cell

     iteration #  5     ecut=   100.00 Ry     beta= 0.40
     Davidson diagonalization with overlap
     ethr =  9.63E-04,  avg # of iterations =  2.0

     negative rho (up, down):  0.000E+00 2.019E-04

     total cpu time spent up to now is     1145.2 secs

     total energy              =   -2125.97863976 Ry
     estimated scf accuracy    <       0.63536792 Ry

     total magnetization       =    19.00 Bohr mag/cell
     absolute magnetization    =    19.00 Bohr mag/cell

     iteration #  6     ecut=   100.00 Ry     beta= 0.40
     Davidson diagonalization with overlap
     ethr =  3.36E-04,  avg # of iterations =  2.3

     negative rho (up, down):  0.000E+00 3.550E-04

     total cpu time spent up to now is     1340.5 secs

     total energy              =   -2125.99632072 Ry
     estimated scf accuracy    <       0.95711705 Ry

     total magnetization       =    18.44 Bohr mag/cell
     absolute magnetization    =    18.44 Bohr mag/cell

     iteration #  7     ecut=   100.00 Ry     beta= 0.40
     Davidson diagonalization with overlap
     ethr =  3.36E-04,  avg # of iterations =  1.5

     negative rho (up, down):  0.000E+00 4.198E-04

     total cpu time spent up to now is     1520.4 secs

     total energy              =   -2126.01613299 Ry
     estimated scf accuracy    <       0.70836891 Ry

     total magnetization       =    19.04 Bohr mag/cell
     absolute magnetization    =    19.04 Bohr mag/cell

     iteration #  8     ecut=   100.00 Ry     beta= 0.40
     Davidson diagonalization with overlap
     ethr =  3.36E-04,  avg # of iterations =  1.1

     negative rho (up, down):  0.000E+00 5.126E-04

     total cpu time spent up to now is     1687.8 secs

     total energy              =   -2126.03757327 Ry
     estimated scf accuracy    <       0.57263091 Ry

     total magnetization       =    19.00 Bohr mag/cell
     absolute magnetization    =    19.01 Bohr mag/cell

     iteration #  9     ecut=   100.00 Ry     beta= 0.40
     Davidson diagonalization with overlap
     ethr =  3.03E-04,  avg # of iterations =  1.1

     negative rho (up, down):  0.000E+00 7.673E-04

     total cpu time spent up to now is     1854.8 secs

     total energy              =   -2126.03829782 Ry
     estimated scf accuracy    <       0.09011695 Ry

     total magnetization       =    19.00 Bohr mag/cell
     absolute magnetization    =    19.01 Bohr mag/cell

     iteration # 10     ecut=   100.00 Ry     beta= 0.40
     Davidson diagonalization with overlap
     c_bands:  1 eigenvalues not converged
     c_bands:  1 eigenvalues not converged
     c_bands:  1 eigenvalues not converged
     ethr =  4.77E-05,  avg # of iterations = 13.7

     negative rho (up, down):  0.000E+00 8.390E-04

     total cpu time spent up to now is     2179.5 secs

     total energy              =   -2126.04745558 Ry
     estimated scf accuracy    <       0.05277619 Ry

     total magnetization       =    19.00 Bohr mag/cell
     absolute magnetization    =    19.02 Bohr mag/cell

     iteration # 11     ecut=   100.00 Ry     beta= 0.40
     Davidson diagonalization with overlap
     ethr =  2.79E-05,  avg # of iterations =  1.2

     negative rho (up, down):  0.000E+00 8.431E-04

     total cpu time spent up to now is     2349.8 secs

     total energy              =   -2126.05117737 Ry
     estimated scf accuracy    <       0.02837171 Ry

     total magnetization       =    19.00 Bohr mag/cell
     absolute magnetization    =    19.03 Bohr mag/cell

     iteration # 12     ecut=   100.00 Ry     beta= 0.40
     Davidson diagonalization with overlap
     ethr =  1.50E-05,  avg # of iterations =  1.1

     negative rho (up, down):  0.000E+00 8.712E-04

     total cpu time spent up to now is     2517.5 secs

     total energy              =   -2126.05222055 Ry
     estimated scf accuracy    <       0.00923640 Ry

     total magnetization       =    19.00 Bohr mag/cell
     absolute magnetization    =    19.03 Bohr mag/cell

     iteration # 13     ecut=   100.00 Ry     beta= 0.40
     Davidson diagonalization with overlap
     c_bands:  1 eigenvalues not converged
     c_bands:  1 eigenvalues not converged
     c_bands:  1 eigenvalues not converged
     c_bands:  1 eigenvalues not converged
     c_bands:  1 eigenvalues not converged
     c_bands:  1 eigenvalues not converged
     c_bands:  1 eigenvalues not converged
     c_bands:  1 eigenvalues not converged
     c_bands:  1 eigenvalues not converged
     c_bands:  1 eigenvalues not converged
     c_bands:  1 eigenvalues not converged
     c_bands:  1 eigenvalues not converged
     c_bands:  1 eigenvalues not converged
     c_bands:  1 eigenvalues not converged
     ethr =  4.89E-06,  avg # of iterations =  4.4

     negative rho (up, down):  0.000E+00 8.708E-04

     total cpu time spent up to now is     2729.8 secs

     total energy              =   -2126.05276765 Ry
     estimated scf accuracy    <       0.01701512 Ry

     total magnetization       =    19.00 Bohr mag/cell
     absolute magnetization    =    19.04 Bohr mag/cell

     iteration # 14     ecut=   100.00 Ry     beta= 0.40
     Davidson diagonalization with overlap
     ethr =  4.89E-06,  avg # of iterations =  1.2

     negative rho (up, down):  0.000E+00 8.906E-04

     total cpu time spent up to now is     2899.2 secs

     total energy              =   -2126.05323735 Ry
     estimated scf accuracy    <       0.00579473 Ry

     total magnetization       =    19.00 Bohr mag/cell
     absolute magnetization    =    19.04 Bohr mag/cell

     iteration # 15     ecut=   100.00 Ry     beta= 0.40
     Davidson diagonalization with overlap
     ethr =  3.07E-06,  avg # of iterations =  1.8

     negative rho (up, down):  0.000E+00 8.835E-04

     total cpu time spent up to now is     3082.7 secs

     total energy              =   -2126.05351877 Ry
     estimated scf accuracy    <       0.00168435 Ry

     total magnetization       =    19.00 Bohr mag/cell
     absolute magnetization    =    19.05 Bohr mag/cell

     iteration # 16     ecut=   100.00 Ry     beta= 0.40
     Davidson diagonalization with overlap
     c_bands:  1 eigenvalues not converged
     c_bands:  1 eigenvalues not converged
     c_bands:  1 eigenvalues not converged
     c_bands:  1 eigenvalues not converged
     ethr =  8.91E-07,  avg # of iterations =  4.8

     negative rho (up, down):  0.000E+00 8.744E-04

     total cpu time spent up to now is     3309.1 secs

     total energy              =   -2126.05375138 Ry
     estimated scf accuracy    <       0.00004989 Ry

     total magnetization       =    19.00 Bohr mag/cell
     absolute magnetization    =    19.05 Bohr mag/cell

     iteration # 17     ecut=   100.00 Ry     beta= 0.40
     Davidson diagonalization with overlap
     c_bands:  1 eigenvalues not converged
     c_bands:  1 eigenvalues not converged
     c_bands:  1 eigenvalues not converged
     c_bands:  1 eigenvalues not converged
     ethr =  2.64E-08,  avg # of iterations =  8.1

     negative rho (up, down):  0.000E+00 8.707E-04

     total cpu time spent up to now is     3806.2 secs

     total energy              =   -2126.05385548 Ry
     estimated scf accuracy    <       0.00001564 Ry

     total magnetization       =    19.00 Bohr mag/cell
     absolute magnetization    =    19.05 Bohr mag/cell

     iteration # 18     ecut=   100.00 Ry     beta= 0.40
     Davidson diagonalization with overlap
     ethr =  8.28E-09,  avg # of iterations =  1.1

     negative rho (up, down):  0.000E+00 8.677E-04

     total cpu time spent up to now is     3975.9 secs

     total energy              =   -2126.05385597 Ry
     estimated scf accuracy    <       0.00003027 Ry

     total magnetization       =    19.00 Bohr mag/cell
     absolute magnetization    =    19.05 Bohr mag/cell

     iteration # 19     ecut=   100.00 Ry     beta= 0.40
     Davidson diagonalization with overlap
     ethr =  8.28E-09,  avg # of iterations =  1.0

     negative rho (up, down):  0.000E+00 8.665E-04

     total cpu time spent up to now is     4142.1 secs

     total energy              =   -2126.05385810 Ry
     estimated scf accuracy    <       0.00001844 Ry

     total magnetization       =    19.00 Bohr mag/cell
     absolute magnetization    =    19.05 Bohr mag/cell

     iteration # 20     ecut=   100.00 Ry     beta= 0.40
     Davidson diagonalization with overlap
     ethr =  8.28E-09,  avg # of iterations =  1.0

     negative rho (up, down):  0.000E+00 8.653E-04

     total cpu time spent up to now is     4307.8 secs

     total energy              =   -2126.05385928 Ry
     estimated scf accuracy    <       0.00000906 Ry

     total magnetization       =    19.00 Bohr mag/cell
     absolute magnetization    =    19.05 Bohr mag/cell

     iteration # 21     ecut=   100.00 Ry     beta= 0.40
     Davidson diagonalization with overlap
     ethr =  4.79E-09,  avg # of iterations =  1.0

     negative rho (up, down):  0.000E+00 8.644E-04

     total cpu time spent up to now is     4473.8 secs

     total energy              =   -2126.05385992 Ry
     estimated scf accuracy    <       0.00000090 Ry

     total magnetization       =    19.00 Bohr mag/cell
     absolute magnetization    =    19.05 Bohr mag/cell

     iteration # 22     ecut=   100.00 Ry     beta= 0.40
     Davidson diagonalization with overlap
     ethr =  4.74E-10,  avg # of iterations =  2.9

     negative rho (up, down):  0.000E+00 8.654E-04

     total cpu time spent up to now is     4683.7 secs

     total energy              =   -2126.05386021 Ry
     estimated scf accuracy    <       0.00000040 Ry

     total magnetization       =    19.00 Bohr mag/cell
     absolute magnetization    =    19.05 Bohr mag/cell

     iteration # 23     ecut=   100.00 Ry     beta= 0.40
     Davidson diagonalization with overlap
     ethr =  2.12E-10,  avg # of iterations =  2.6

     negative rho (up, down):  0.000E+00 8.657E-04

     total cpu time spent up to now is     4892.9 secs

     total energy              =   -2126.05386037 Ry
     estimated scf accuracy    <       0.00000025 Ry

     total magnetization       =    19.00 Bohr mag/cell
     absolute magnetization    =    19.05 Bohr mag/cell

     iteration # 24     ecut=   100.00 Ry     beta= 0.40
     Davidson diagonalization with overlap
     ethr =  1.34E-10,  avg # of iterations =  2.0

     negative rho (up, down):  0.000E+00 8.658E-04

     total cpu time spent up to now is     5084.2 secs

     total energy              =   -2126.05386042 Ry
     estimated scf accuracy    <       0.00000004 Ry

     total magnetization       =    19.00 Bohr mag/cell
     absolute magnetization    =    19.05 Bohr mag/cell

     iteration # 25     ecut=   100.00 Ry     beta= 0.40
     Davidson diagonalization with overlap
     ethr =  2.20E-11,  avg # of iterations =  4.2

     negative rho (up, down):  0.000E+00 8.659E-04

     total cpu time spent up to now is     5355.0 secs

     total energy              =   -2126.05386045 Ry
     estimated scf accuracy    <       0.00000001 Ry

     total magnetization       =    19.00 Bohr mag/cell
     absolute magnetization    =    19.05 Bohr mag/cell

     iteration # 26     ecut=   100.00 Ry     beta= 0.40
     Davidson diagonalization with overlap
     ethr =  7.92E-12,  avg # of iterations =  2.3

     negative rho (up, down):  0.000E+00 8.658E-04

     total cpu time spent up to now is     5551.8 secs

     total energy              =   -2126.05386046 Ry
     estimated scf accuracy    <          8.9E-09 Ry

     total magnetization       =    19.00 Bohr mag/cell
     absolute magnetization    =    19.05 Bohr mag/cell

     iteration # 27     ecut=   100.00 Ry     beta= 0.40
     Davidson diagonalization with overlap
     ethr =  4.73E-12,  avg # of iterations =  2.0

     negative rho (up, down):  0.000E+00 8.658E-04

     total cpu time spent up to now is     5745.0 secs

     total energy              =   -2126.05386046 Ry
     estimated scf accuracy    <       0.00000003 Ry

     total magnetization       =    19.00 Bohr mag/cell
     absolute magnetization    =    19.05 Bohr mag/cell

     iteration # 28     ecut=   100.00 Ry     beta= 0.40
     Davidson diagonalization with overlap
     ethr =  4.73E-12,  avg # of iterations =  1.2

     negative rho (up, down):  0.000E+00 8.658E-04

     total cpu time spent up to now is     5915.2 secs

     total energy              =   -2126.05386046 Ry
     estimated scf accuracy    <          3.8E-09 Ry

     total magnetization       =    19.00 Bohr mag/cell
     absolute magnetization    =    19.05 Bohr mag/cell

     iteration # 29     ecut=   100.00 Ry     beta= 0.40
     Davidson diagonalization with overlap
     ethr =  2.03E-12,  avg # of iterations =  2.0

     negative rho (up, down):  0.000E+00 8.658E-04

     total cpu time spent up to now is     6109.4 secs

     total energy              =   -2126.05386047 Ry
     estimated scf accuracy    <          3.8E-09 Ry

     total magnetization       =    19.00 Bohr mag/cell
     absolute magnetization    =    19.05 Bohr mag/cell

     iteration # 30     ecut=   100.00 Ry     beta= 0.40
     Davidson diagonalization with overlap
     ethr =  2.03E-12,  avg # of iterations =  1.1

     negative rho (up, down):  0.000E+00 8.658E-04

     total cpu time spent up to now is     6276.0 secs

     total energy              =   -2126.05386047 Ry
     estimated scf accuracy    <          1.5E-09 Ry

     total magnetization       =    19.00 Bohr mag/cell
     absolute magnetization    =    19.05 Bohr mag/cell

     iteration # 31     ecut=   100.00 Ry     beta= 0.40
     Davidson diagonalization with overlap
     ethr =  7.86E-13,  avg # of iterations =  1.4

     negative rho (up, down):  0.000E+00 8.658E-04

     total cpu time spent up to now is     6451.6 secs

     total energy              =   -2126.05386047 Ry
     estimated scf accuracy    <          8.7E-10 Ry

     total magnetization       =    19.00 Bohr mag/cell
     absolute magnetization    =    19.05 Bohr mag/cell

     iteration # 32     ecut=   100.00 Ry     beta= 0.40
     Davidson diagonalization with overlap
     ethr =  4.63E-13,  avg # of iterations =  1.9

     negative rho (up, down):  0.000E+00 8.658E-04

     total cpu time spent up to now is     6637.8 secs

     total energy              =   -2126.05386047 Ry
     estimated scf accuracy    <          3.0E-10 Ry

     total magnetization       =    19.00 Bohr mag/cell
     absolute magnetization    =    19.05 Bohr mag/cell

     iteration # 33     ecut=   100.00 Ry     beta= 0.40
     Davidson diagonalization with overlap
     ethr =  1.60E-13,  avg # of iterations =  3.4

     negative rho (up, down):  0.000E+00 8.658E-04

     Magnetic moment per site:
     atom:    1    charge:    7.8410    magn:    0.0015    constr:    0.0000
     atom:    2    charge:   12.8237    magn:    3.5980    constr:    0.0000
     atom:    3    charge:   12.8404    magn:    3.5391    constr:    0.0000
     atom:    4    charge:   12.8121    magn:    3.6184    constr:    0.0000
     atom:    5    charge:   12.8133    magn:    3.6090    constr:    0.0000
     atom:    6    charge:    0.8386    magn:    0.0132    constr:    0.0000
     atom:    7    charge:    0.8581    magn:    0.0077    constr:    0.0000
     atom:    8    charge:    0.8462    magn:    0.0107    constr:    0.0000
     atom:    9    charge:    0.8460    magn:    0.0104    constr:    0.0000
     atom:   10    charge:    4.2528    magn:    0.1246    constr:    0.0000
     atom:   11    charge:    4.2478    magn:    0.1316    constr:    0.0000
     atom:   12    charge:    4.2571    magn:    0.1157    constr:    0.0000
     atom:   13    charge:    4.2685    magn:    0.1319    constr:    0.0000
     atom:   14    charge:    4.2672    magn:    0.1100    constr:    0.0000
     atom:   15    charge:    4.2478    magn:    0.1384    constr:    0.0000
     atom:   16    charge:    4.2460    magn:    0.0831    constr:    0.0000
     atom:   17    charge:    4.2596    magn:    0.1224    constr:    0.0000
     atom:   18    charge:    4.2435    magn:    0.1324    constr:    0.0000
     atom:   19    charge:    4.2648    magn:    0.1027    constr:    0.0000
     atom:   20    charge:    4.2343    magn:    0.1563    constr:    0.0000
     atom:   21    charge:    4.2407    magn:    0.1261    constr:    0.0000
     atom:   22    charge:    4.2381    magn:    0.1537    constr:    0.0000
     atom:   23    charge:    4.2232    magn:    0.1180    constr:    0.0000
     atom:   24    charge:    4.2471    magn:    0.1365    constr:    0.0000
     atom:   25    charge:    4.2347    magn:    0.1481    constr:    0.0000

     total cpu time spent up to now is     6848.1 secs

     End of self-consistent calculation

 ------ SPIN UP ------------


          k = 0.0000 0.0000 0.0000 ( 36463 PWs)   bands (ev):

   -85.2623 -85.0956 -85.0805 -84.9439 -51.2974 -51.2602 -51.2304 -51.2290
   -51.2237 -51.1807 -51.1116 -51.0104 -50.9857 -50.9263 -50.8960 -50.7767
   -44.7641 -16.9244 -16.8159 -16.7884 -16.2868 -16.0712 -16.0037 -15.8149
   -13.8836 -13.7655 -13.7421 -13.6459 -13.5916 -13.5706 -13.5315 -13.5096
   -13.4919 -13.4367 -13.3689 -13.3343  -4.3143  -3.7813  -3.5553  -3.2366
    -2.2355  -2.0992  -1.9179  -1.7050  -1.5675  -1.4690  -1.3641  -1.2744
    -1.1435  -1.0054  -0.9234  -0.6535  -0.2398  -0.1128   0.0471   0.2241
     0.3246   0.4083   0.4331   0.6358   0.8305   0.8775   0.9365   0.9968
     1.0983   1.1921   1.3302   1.4022   1.4701   1.5623   1.6983   1.8426
     1.8627   2.0080   2.0262   2.0559   2.2537   2.2794   2.3513   2.4763
     2.5392   2.7018   2.7385   2.8073   2.8996   2.9268   3.0692   3.2066
     3.2858   3.4065   3.4637   3.5164   3.5940   3.6405   3.8324   3.9065
     3.9841   4.0862   4.0933   4.2752   4.4061   4.5462   4.7951   4.8842
     8.9833  10.8626  11.3689  11.7387  12.1722  12.7813  12.9727  13.2481
    13.3098  13.4156

     occupation numbers 
     1.0000   1.0000   1.0000   1.0000   1.0000   1.0000   1.0000   1.0000
     1.0000   1.0000   1.0000   1.0000   1.0000   1.0000   1.0000   1.0000
     1.0000   1.0000   1.0000   1.0000   1.0000   1.0000   1.0000   1.0000
     1.0000   1.0000   1.0000   1.0000   1.0000   1.0000   1.0000   1.0000
     1.0000   1.0000   1.0000   1.0000   1.0000   1.0000   1.0000   1.0000
     1.0000   1.0000   1.0000   1.0000   1.0000   1.0000   1.0000   1.0000
     1.0000   1.0000   1.0000   1.0000   1.0000   1.0000   1.0000   1.0000
     1.0000   1.0000   1.0000   1.0000   1.0000   1.0000   1.0000   1.0000
     1.0000   1.0000   1.0000   1.0000   1.0000   1.0000   1.0000   1.0000
     1.0000   1.0000   1.0000   1.0000   1.0000   1.0000   1.0000   1.0000
     1.0000   1.0000   1.0000   1.0000   1.0000   1.0000   1.0000   1.0000
     1.0000   1.0000   1.0000   1.0000   1.0000   1.0000   1.0000   1.0000
     1.0000   1.0000   1.0000   1.0000   1.0000   1.0000   1.0000   1.0000
     0.0000   0.0000   0.0000   0.0000   0.0000   0.0000   0.0000   0.0000
     0.0000   0.0000

          k = 0.0000 0.0000 0.2337 ( 36493 PWs)   bands (ev):

   -85.2623 -85.0956 -85.0805 -84.9439 -51.2974 -51.2602 -51.2304 -51.2290
   -51.2237 -51.1807 -51.1116 -51.0104 -50.9857 -50.9263 -50.8960 -50.7767
   -44.7641 -16.9248 -16.8200 -16.7914 -16.2662 -16.0666 -15.9940 -15.8163
   -13.8889 -13.7759 -13.7415 -13.6496 -13.6010 -13.5719 -13.5409 -13.5067
   -13.4891 -13.4451 -13.3714 -13.3385  -4.2893  -3.7782  -3.5478  -3.2365
    -2.2152  -2.0940  -1.9021  -1.6878  -1.5671  -1.4625  -1.3635  -1.2536
    -1.1343  -1.0172  -0.9035  -0.6717  -0.2365  -0.0992   0.0474   0.2352
     0.3134   0.4046   0.4529   0.6281   0.7935   0.8913   0.9299   0.9962
     1.0867   1.1904   1.3353   1.3950   1.4818   1.5707   1.6821   1.8077
     1.8313   1.9582   2.0400   2.0693   2.2442   2.2607   2.3514   2.4696
     2.5704   2.7086   2.7248   2.7806   2.8926   2.9294   3.0863   3.1964
     3.3003   3.3830   3.4656   3.5308   3.5779   3.6304   3.8489   3.9089
     3.9838   4.0692   4.1125   4.2683   4.4098   4.5377   4.7958   4.8671
     9.1259  10.9284  11.4311  11.7490  12.2242  12.7252  12.9216  13.1788
    13.2787  13.4157

     occupation numbers 
     1.0000   1.0000   1.0000   1.0000   1.0000   1.0000   1.0000   1.0000
     1.0000   1.0000   1.0000   1.0000   1.0000   1.0000   1.0000   1.0000
     1.0000   1.0000   1.0000   1.0000   1.0000   1.0000   1.0000   1.0000
     1.0000   1.0000   1.0000   1.0000   1.0000   1.0000   1.0000   1.0000
     1.0000   1.0000   1.0000   1.0000   1.0000   1.0000   1.0000   1.0000
     1.0000   1.0000   1.0000   1.0000   1.0000   1.0000   1.0000   1.0000
     1.0000   1.0000   1.0000   1.0000   1.0000   1.0000   1.0000   1.0000
     1.0000   1.0000   1.0000   1.0000   1.0000   1.0000   1.0000   1.0000
     1.0000   1.0000   1.0000   1.0000   1.0000   1.0000   1.0000   1.0000
     1.0000   1.0000   1.0000   1.0000   1.0000   1.0000   1.0000   1.0000
     1.0000   1.0000   1.0000   1.0000   1.0000   1.0000   1.0000   1.0000
     1.0000   1.0000   1.0000   1.0000   1.0000   1.0000   1.0000   1.0000
     1.0000   1.0000   1.0000   1.0000   1.0000   1.0000   1.0000   1.0000
     0.0000   0.0000   0.0000   0.0000   0.0000   0.0000   0.0000   0.0000
     0.0000   0.0000

          k = 0.0000 0.0000 0.4675 ( 36542 PWs)   bands (ev):

   -85.2623 -85.0956 -85.0805 -84.9439 -51.2974 -51.2602 -51.2304 -51.2290
   -51.2237 -51.1807 -51.1116 -51.0104 -50.9857 -50.9263 -50.8960 -50.7767
   -44.7641 -16.9262 -16.8316 -16.7952 -16.2126 -16.0539 -15.9691 -15.8228
   -13.9042 -13.8020 -13.7422 -13.6601 -13.6234 -13.5812 -13.5534 -13.5055
   -13.4812 -13.4625 -13.3785 -13.3501  -4.2240  -3.7631  -3.5327  -3.2509
    -2.1834  -2.0515  -1.8573  -1.6568  -1.5686  -1.4504  -1.3578  -1.1995
    -1.1093  -1.0179  -0.8713  -0.7214  -0.2099  -0.0715   0.0699   0.2507
     0.3034   0.4002   0.4892   0.6357   0.7614   0.8516   0.9230   0.9894
     1.0869   1.1974   1.3108   1.3803   1.4799   1.5263   1.6229   1.7607
     1.7945   1.8683   2.0194   2.0468   2.2118   2.2639   2.3630   2.4792
     2.6102   2.6307   2.6845   2.7627   2.8595   2.9511   3.1306   3.1660
     3.2851   3.3667   3.5036   3.5525   3.5869   3.6378   3.8667   3.9237
     3.9784   4.0524   4.1362   4.2544   4.4141   4.5279   4.7922   4.8222
     9.5099  11.1002  11.5648  11.8046  12.3456  12.5501  12.8212  12.9721
    13.2238  13.3821

     occupation numbers 
     1.0000   1.0000   1.0000   1.0000   1.0000   1.0000   1.0000   1.0000
     1.0000   1.0000   1.0000   1.0000   1.0000   1.0000   1.0000   1.0000
     1.0000   1.0000   1.0000   1.0000   1.0000   1.0000   1.0000   1.0000
     1.0000   1.0000   1.0000   1.0000   1.0000   1.0000   1.0000   1.0000
     1.0000   1.0000   1.0000   1.0000   1.0000   1.0000   1.0000   1.0000
     1.0000   1.0000   1.0000   1.0000   1.0000   1.0000   1.0000   1.0000
     1.0000   1.0000   1.0000   1.0000   1.0000   1.0000   1.0000   1.0000
     1.0000   1.0000   1.0000   1.0000   1.0000   1.0000   1.0000   1.0000
     1.0000   1.0000   1.0000   1.0000   1.0000   1.0000   1.0000   1.0000
     1.0000   1.0000   1.0000   1.0000   1.0000   1.0000   1.0000   1.0000
     1.0000   1.0000   1.0000   1.0000   1.0000   1.0000   1.0000   1.0000
     1.0000   1.0000   1.0000   1.0000   1.0000   1.0000   1.0000   1.0000
     1.0000   1.0000   1.0000   1.0000   1.0000   1.0000   1.0000   1.0000
     0.0000   0.0000   0.0000   0.0000   0.0000   0.0000   0.0000   0.0000
     0.0000   0.0000

          k = 0.0000 0.0000 0.7012 ( 36506 PWs)   bands (ev):

   -85.2623 -85.0956 -85.0805 -84.9439 -51.2974 -51.2602 -51.2304 -51.2290
   -51.2237 -51.1807 -51.1116 -51.0104 -50.9857 -50.9263 -50.8960 -50.7767
   -44.7641 -16.9291 -16.8440 -16.7968 -16.1469 -16.0379 -15.9399 -15.8384
   -13.9238 -13.8335 -13.7442 -13.6799 -13.6418 -13.6000 -13.5564 -13.5093
   -13.4858 -13.4559 -13.3894 -13.3659  -4.1459  -3.7260  -3.5278  -3.2922
    -2.1693  -1.9815  -1.7850  -1.6383  -1.5716  -1.4484  -1.3411  -1.1415
    -1.0958  -0.9781  -0.8492  -0.7733  -0.1285  -0.0545   0.1292   0.2592
     0.3334   0.4050   0.5314   0.6547   0.7606   0.8125   0.9093   0.9741
     1.0761   1.1611   1.2591   1.3128   1.3896   1.4446   1.5941   1.6884
     1.7602   1.8298   1.9638   1.9970   2.2348   2.3031   2.3422   2.4709
     2.5464   2.6077   2.6756   2.7034   2.7952   2.9685   3.1395   3.1552
     3.3009   3.3516   3.4902   3.6301   3.6531   3.7171   3.8665   3.9325
     3.9709   4.0627   4.1443   4.2471   4.4120   4.5297   4.7414   4.8021
    10.0417  11.2922  11.6094  11.9164  12.2349  12.5463  12.7043  12.8692
    13.0959  13.2364

     occupation numbers 
     1.0000   1.0000   1.0000   1.0000   1.0000   1.0000   1.0000   1.0000
     1.0000   1.0000   1.0000   1.0000   1.0000   1.0000   1.0000   1.0000
     1.0000   1.0000   1.0000   1.0000   1.0000   1.0000   1.0000   1.0000
     1.0000   1.0000   1.0000   1.0000   1.0000   1.0000   1.0000   1.0000
     1.0000   1.0000   1.0000   1.0000   1.0000   1.0000   1.0000   1.0000
     1.0000   1.0000   1.0000   1.0000   1.0000   1.0000   1.0000   1.0000
     1.0000   1.0000   1.0000   1.0000   1.0000   1.0000   1.0000   1.0000
     1.0000   1.0000   1.0000   1.0000   1.0000   1.0000   1.0000   1.0000
     1.0000   1.0000   1.0000   1.0000   1.0000   1.0000   1.0000   1.0000
     1.0000   1.0000   1.0000   1.0000   1.0000   1.0000   1.0000   1.0000
     1.0000   1.0000   1.0000   1.0000   1.0000   1.0000   1.0000   1.0000
     1.0000   1.0000   1.0000   1.0000   1.0000   1.0000   1.0000   1.0000
     1.0000   1.0000   1.0000   1.0000   1.0000   1.0000   1.0000   1.0000
     0.0000   0.0000   0.0000   0.0000   0.0000   0.0000   0.0000   0.0000
     0.0000   0.0000

          k = 0.0000 0.0000 0.9349 ( 36496 PWs)   bands (ev):

   -85.2623 -85.0956 -85.0805 -84.9439 -51.2974 -51.2602 -51.2304 -51.2290
   -51.2237 -51.1807 -51.1116 -51.0104 -50.9857 -50.9263 -50.8960 -50.7767
   -44.7641 -16.9318 -16.8509 -16.7972 -16.0988 -16.0253 -15.9180 -15.8589
   -13.9374 -13.8551 -13.7468 -13.6991 -13.6483 -13.6131 -13.5566 -13.5136
   -13.4925 -13.4330 -13.4059 -13.3777  -4.0934  -3.6723  -3.5475  -3.3334
    -2.1612  -1.9460  -1.7138  -1.6338  -1.5759  -1.4533  -1.3246  -1.1157
    -1.0825  -0.9628  -0.8334  -0.7884  -0.0695   0.0225   0.1597   0.2487
     0.3893   0.4428   0.6063   0.6670   0.7559   0.8095   0.8643   0.9354
     0.9984   1.0619   1.1253   1.3050   1.3795   1.3927   1.5792   1.6844
     1.7279   1.7957   1.9175   2.0159   2.1979   2.2930   2.3710   2.4466
     2.5175   2.5850   2.6377   2.7016   2.7623   2.9601   3.1230   3.1665
     3.3173   3.3476   3.4891   3.6406   3.6988   3.8504   3.8816   3.9246
     3.9642   4.0786   4.1438   4.2469   4.4047   4.5261   4.6914   4.7975
    10.6207  11.1820  11.5650  11.9220  12.2674  12.5407  12.5939  12.9299
    13.0688  13.1624

     occupation numbers 
     1.0000   1.0000   1.0000   1.0000   1.0000   1.0000   1.0000   1.0000
     1.0000   1.0000   1.0000   1.0000   1.0000   1.0000   1.0000   1.0000
     1.0000   1.0000   1.0000   1.0000   1.0000   1.0000   1.0000   1.0000
     1.0000   1.0000   1.0000   1.0000   1.0000   1.0000   1.0000   1.0000
     1.0000   1.0000   1.0000   1.0000   1.0000   1.0000   1.0000   1.0000
     1.0000   1.0000   1.0000   1.0000   1.0000   1.0000   1.0000   1.0000
     1.0000   1.0000   1.0000   1.0000   1.0000   1.0000   1.0000   1.0000
     1.0000   1.0000   1.0000   1.0000   1.0000   1.0000   1.0000   1.0000
     1.0000   1.0000   1.0000   1.0000   1.0000   1.0000   1.0000   1.0000
     1.0000   1.0000   1.0000   1.0000   1.0000   1.0000   1.0000   1.0000
     1.0000   1.0000   1.0000   1.0000   1.0000   1.0000   1.0000   1.0000
     1.0000   1.0000   1.0000   1.0000   1.0000   1.0000   1.0000   1.0000
     1.0000   1.0000   1.0000   1.0000   1.0000   1.0000   1.0000   1.0000
     0.0000   0.0000   0.0000   0.0000   0.0000   0.0000   0.0000   0.0000
     0.0000   0.0000

          k = 0.0000 0.2391 0.0000 ( 36485 PWs)   bands (ev):

   -85.2623 -85.0956 -85.0805 -84.9439 -51.2974 -51.2602 -51.2304 -51.2290
   -51.2237 -51.1807 -51.1116 -51.0104 -50.9857 -50.9263 -50.8960 -50.7767
   -44.7641 -16.9285 -16.8155 -16.7887 -16.2647 -16.0671 -16.0014 -15.8340
   -13.8895 -13.7761 -13.7415 -13.6484 -13.6023 -13.5806 -13.5335 -13.5080
   -13.4661 -13.4399 -13.3653 -13.3345  -4.2863  -3.7586  -3.5726  -3.2439
    -2.2125  -2.0779  -1.9127  -1.6954  -1.5659  -1.4722  -1.3329  -1.2593
    -1.1382  -0.9878  -0.9199  -0.6518  -0.2413  -0.1167   0.0414   0.2157
     0.3212   0.3710   0.4668   0.5813   0.7638   0.8777   0.9234   1.0664
     1.1413   1.2181   1.2976   1.3626   1.4321   1.5822   1.6638   1.7487
     1.8391   1.9809   2.0276   2.0867   2.2081   2.2987   2.4134   2.4975
     2.5888   2.6552   2.7306   2.7760   2.8723   2.9251   3.1055   3.1353
     3.2775   3.3581   3.4207   3.5326   3.6199   3.6863   3.8287   3.8910
     3.9938   4.0643   4.1027   4.2996   4.3665   4.5754   4.8349   4.9071
     9.1385  10.9624  11.4420  11.6617  12.2107  12.7823  12.9684  13.2264
    13.3353  13.3938

     occupation numbers 
     1.0000   1.0000   1.0000   1.0000   1.0000   1.0000   1.0000   1.0000
     1.0000   1.0000   1.0000   1.0000   1.0000   1.0000   1.0000   1.0000
     1.0000   1.0000   1.0000   1.0000   1.0000   1.0000   1.0000   1.0000
     1.0000   1.0000   1.0000   1.0000   1.0000   1.0000   1.0000   1.0000
     1.0000   1.0000   1.0000   1.0000   1.0000   1.0000   1.0000   1.0000
     1.0000   1.0000   1.0000   1.0000   1.0000   1.0000   1.0000   1.0000
     1.0000   1.0000   1.0000   1.0000   1.0000   1.0000   1.0000   1.0000
     1.0000   1.0000   1.0000   1.0000   1.0000   1.0000   1.0000   1.0000
     1.0000   1.0000   1.0000   1.0000   1.0000   1.0000   1.0000   1.0000
     1.0000   1.0000   1.0000   1.0000   1.0000   1.0000   1.0000   1.0000
     1.0000   1.0000   1.0000   1.0000   1.0000   1.0000   1.0000   1.0000
     1.0000   1.0000   1.0000   1.0000   1.0000   1.0000   1.0000   1.0000
     1.0000   1.0000   1.0000   1.0000   1.0000   1.0000   1.0000   1.0000
     0.0000   0.0000   0.0000   0.0000   0.0000   0.0000   0.0000   0.0000
     0.0000   0.0000

          k = 0.0000 0.2391 0.2337 ( 36495 PWs)   bands (ev):

   -85.2623 -85.0956 -85.0805 -84.9439 -51.2974 -51.2602 -51.2304 -51.2290
   -51.2237 -51.1807 -51.1116 -51.0104 -50.9857 -50.9263 -50.8960 -50.7767
   -44.7641 -16.9316 -16.8185 -16.7910 -16.2371 -16.0634 -15.9901 -15.8423
   -13.8934 -13.7781 -13.7528 -13.6492 -13.6112 -13.5781 -13.5447 -13.5092
   -13.4646 -13.4475 -13.3678 -13.3375  -4.2541  -3.7583  -3.5579  -3.2568
    -2.1929  -2.0772  -1.8975  -1.6669  -1.5612  -1.4777  -1.3516  -1.2307
    -1.1224  -1.0045  -0.8988  -0.6492  -0.2558  -0.1014   0.0411   0.2276
     0.2968   0.3765   0.4918   0.5499   0.7876   0.8778   0.9362   1.0647
     1.1135   1.1944   1.3004   1.3863   1.4685   1.5664   1.6236   1.7098
     1.7740   1.9688   2.0509   2.1330   2.1993   2.2735   2.3677   2.5105
     2.5840   2.6817   2.7537   2.7776   2.8165   2.9265   3.0947   3.1457
     3.2905   3.3421   3.4213   3.5196   3.6200   3.6731   3.8457   3.9049
     3.9896   4.0534   4.1115   4.2668   4.4221   4.5362   4.8356   4.8977
     9.2688  11.0192  11.5103  11.6899  12.2701  12.7466  12.9003  13.1687
    13.2887  13.4212

     occupation numbers 
     1.0000   1.0000   1.0000   1.0000   1.0000   1.0000   1.0000   1.0000
     1.0000   1.0000   1.0000   1.0000   1.0000   1.0000   1.0000   1.0000
     1.0000   1.0000   1.0000   1.0000   1.0000   1.0000   1.0000   1.0000
     1.0000   1.0000   1.0000   1.0000   1.0000   1.0000   1.0000   1.0000
     1.0000   1.0000   1.0000   1.0000   1.0000   1.0000   1.0000   1.0000
     1.0000   1.0000   1.0000   1.0000   1.0000   1.0000   1.0000   1.0000
     1.0000   1.0000   1.0000   1.0000   1.0000   1.0000   1.0000   1.0000
     1.0000   1.0000   1.0000   1.0000   1.0000   1.0000   1.0000   1.0000
     1.0000   1.0000   1.0000   1.0000   1.0000   1.0000   1.0000   1.0000
     1.0000   1.0000   1.0000   1.0000   1.0000   1.0000   1.0000   1.0000
     1.0000   1.0000   1.0000   1.0000   1.0000   1.0000   1.0000   1.0000
     1.0000   1.0000   1.0000   1.0000   1.0000   1.0000   1.0000   1.0000
     1.0000   1.0000   1.0000   1.0000   1.0000   1.0000   1.0000   1.0000
     0.0000   0.0000   0.0000   0.0000   0.0000   0.0000   0.0000   0.0000
     0.0000   0.0000

          k = 0.0000 0.2391 0.4675 ( 36500 PWs)   bands (ev):

   -85.2623 -85.0956 -85.0805 -84.9439 -51.2974 -51.2602 -51.2304 -51.2290
   -51.2237 -51.1807 -51.1116 -51.0104 -50.9857 -50.9263 -50.8960 -50.7767
   -44.7641 -16.9336 -16.8289 -16.7949 -16.1818 -16.0479 -15.9672 -15.8517
   -13.9067 -13.8078 -13.7491 -13.6605 -13.6315 -13.5874 -13.5576 -13.5134
   -13.4748 -13.4498 -13.3732 -13.3463  -4.1841  -3.7453  -3.5335  -3.2816
    -2.1616  -2.0342  -1.8519  -1.6325  -1.5615  -1.4636  -1.3587  -1.1831
    -1.0999  -0.9909  -0.8772  -0.6865  -0.2386  -0.0756   0.0470   0.2413
     0.2840   0.3903   0.4824   0.6024   0.7815   0.8508   0.9304   1.0271
     1.1013   1.1844   1.3049   1.3499   1.4682   1.5443   1.6236   1.6503
     1.7191   1.9124   2.0242   2.1071   2.1970   2.2656   2.3749   2.4507
     2.5658   2.6553   2.7400   2.7507   2.8080   2.9554   3.0616   3.1492
     3.2786   3.3452   3.4340   3.5008   3.6474   3.6888   3.8580   3.9313
     3.9909   4.0296   4.1425   4.2526   4.4669   4.4839   4.8143   4.8885
     9.6323  11.1878  11.6488  11.7806  12.3838  12.6502  12.7900  12.9730
    13.2222  13.3037

     occupation numbers 
     1.0000   1.0000   1.0000   1.0000   1.0000   1.0000   1.0000   1.0000
     1.0000   1.0000   1.0000   1.0000   1.0000   1.0000   1.0000   1.0000
     1.0000   1.0000   1.0000   1.0000   1.0000   1.0000   1.0000   1.0000
     1.0000   1.0000   1.0000   1.0000   1.0000   1.0000   1.0000   1.0000
     1.0000   1.0000   1.0000   1.0000   1.0000   1.0000   1.0000   1.0000
     1.0000   1.0000   1.0000   1.0000   1.0000   1.0000   1.0000   1.0000
     1.0000   1.0000   1.0000   1.0000   1.0000   1.0000   1.0000   1.0000
     1.0000   1.0000   1.0000   1.0000   1.0000   1.0000   1.0000   1.0000
     1.0000   1.0000   1.0000   1.0000   1.0000   1.0000   1.0000   1.0000
     1.0000   1.0000   1.0000   1.0000   1.0000   1.0000   1.0000   1.0000
     1.0000   1.0000   1.0000   1.0000   1.0000   1.0000   1.0000   1.0000
     1.0000   1.0000   1.0000   1.0000   1.0000   1.0000   1.0000   1.0000
     1.0000   1.0000   1.0000   1.0000   1.0000   1.0000   1.0000   1.0000
     0.0000   0.0000   0.0000   0.0000   0.0000   0.0000   0.0000   0.0000
     0.0000   0.0000

          k = 0.0000 0.2391 0.7012 ( 36515 PWs)   bands (ev):

   -85.2623 -85.0956 -85.0805 -84.9439 -51.2974 -51.2602 -51.2304 -51.2290
   -51.2237 -51.1807 -51.1116 -51.0104 -50.9857 -50.9263 -50.8960 -50.7767
   -44.7641 -16.9340 -16.8419 -16.7966 -16.1217 -16.0269 -15.9419 -15.8633
   -13.9255 -13.8413 -13.7449 -13.6867 -13.6463 -13.6071 -13.5626 -13.5184
   -13.4899 -13.4371 -13.3802 -13.3613  -4.1075  -3.7107  -3.5197  -3.3217
    -2.1468  -1.9644  -1.7801  -1.6182  -1.5631  -1.4461  -1.3485  -1.1417
    -1.0837  -0.9518  -0.8460  -0.7508  -0.1564  -0.0696   0.0884   0.2477
     0.2685   0.4376   0.5309   0.6510   0.7675   0.8146   0.8983   1.0037
     1.1133   1.1717   1.2337   1.3248   1.3531   1.4878   1.5907   1.6322
     1.7039   1.8330   1.9386   2.0265   2.2478   2.3087   2.3271   2.4644
     2.5082   2.6325   2.6642   2.7171   2.7882   2.9647   3.0482   3.1540
     3.2878   3.3299   3.4119   3.5833   3.6568   3.7680   3.8624   3.9404
     4.0099   4.0284   4.1567   4.2611   4.4288   4.5120   4.7730   4.8829
    10.1432  11.3946  11.6870  11.9441  12.3113  12.6028  12.6821  12.9136
    13.0717  13.1523

     occupation numbers 
     1.0000   1.0000   1.0000   1.0000   1.0000   1.0000   1.0000   1.0000
     1.0000   1.0000   1.0000   1.0000   1.0000   1.0000   1.0000   1.0000
     1.0000   1.0000   1.0000   1.0000   1.0000   1.0000   1.0000   1.0000
     1.0000   1.0000   1.0000   1.0000   1.0000   1.0000   1.0000   1.0000
     1.0000   1.0000   1.0000   1.0000   1.0000   1.0000   1.0000   1.0000
     1.0000   1.0000   1.0000   1.0000   1.0000   1.0000   1.0000   1.0000
     1.0000   1.0000   1.0000   1.0000   1.0000   1.0000   1.0000   1.0000
     1.0000   1.0000   1.0000   1.0000   1.0000   1.0000   1.0000   1.0000
     1.0000   1.0000   1.0000   1.0000   1.0000   1.0000   1.0000   1.0000
     1.0000   1.0000   1.0000   1.0000   1.0000   1.0000   1.0000   1.0000
     1.0000   1.0000   1.0000   1.0000   1.0000   1.0000   1.0000   1.0000
     1.0000   1.0000   1.0000   1.0000   1.0000   1.0000   1.0000   1.0000
     1.0000   1.0000   1.0000   1.0000   1.0000   1.0000   1.0000   1.0000
     0.0000   0.0000   0.0000   0.0000   0.0000   0.0000   0.0000   0.0000
     0.0000   0.0000

          k = 0.0000 0.2391 0.9349 ( 36488 PWs)   bands (ev):

   -85.2623 -85.0956 -85.0805 -84.9439 -51.2974 -51.2602 -51.2304 -51.2290
   -51.2237 -51.1807 -51.1116 -51.0104 -50.9857 -50.9263 -50.8960 -50.7767
   -44.7641 -16.9321 -16.8513 -16.7972 -16.0837 -16.0183 -15.9211 -15.8688
   -13.9416 -13.8603 -13.7468 -13.7079 -13.6530 -13.6171 -13.5668 -13.5224
   -13.4955 -13.4188 -13.3887 -13.3768  -4.0647  -3.6624  -3.5378  -3.3399
    -2.1393  -1.9337  -1.7110  -1.6185  -1.5653  -1.4387  -1.3187  -1.1246
    -1.0625  -0.9529  -0.8233  -0.7889  -0.0937  -0.0287   0.1243   0.2080
     0.3329   0.5280   0.6064   0.6582   0.7299   0.7888   0.8870   0.9822
     1.0188   1.1134   1.1933   1.2253   1.3483   1.4297   1.5403   1.6115
     1.7426   1.8221   1.9007   1.9988   2.2040   2.2585   2.3722   2.4285
     2.5370   2.5885   2.6174   2.6982   2.7866   2.9462   3.0520   3.1568
     3.2766   3.3274   3.4248   3.6107   3.6945   3.8127   3.8980   3.9333
     4.0057   4.0681   4.1499   4.2815   4.3852   4.5482   4.7529   4.8640
    10.7057  11.3101  11.6478  11.9705  12.3246  12.5592  12.6158  12.9090
    13.0748  13.1610

     occupation numbers 
     1.0000   1.0000   1.0000   1.0000   1.0000   1.0000   1.0000   1.0000
     1.0000   1.0000   1.0000   1.0000   1.0000   1.0000   1.0000   1.0000
     1.0000   1.0000   1.0000   1.0000   1.0000   1.0000   1.0000   1.0000
     1.0000   1.0000   1.0000   1.0000   1.0000   1.0000   1.0000   1.0000
     1.0000   1.0000   1.0000   1.0000   1.0000   1.0000   1.0000   1.0000
     1.0000   1.0000   1.0000   1.0000   1.0000   1.0000   1.0000   1.0000
     1.0000   1.0000   1.0000   1.0000   1.0000   1.0000   1.0000   1.0000
     1.0000   1.0000   1.0000   1.0000   1.0000   1.0000   1.0000   1.0000
     1.0000   1.0000   1.0000   1.0000   1.0000   1.0000   1.0000   1.0000
     1.0000   1.0000   1.0000   1.0000   1.0000   1.0000   1.0000   1.0000
     1.0000   1.0000   1.0000   1.0000   1.0000   1.0000   1.0000   1.0000
     1.0000   1.0000   1.0000   1.0000   1.0000   1.0000   1.0000   1.0000
     1.0000   1.0000   1.0000   1.0000   1.0000   1.0000   1.0000   1.0000
     0.0000   0.0000   0.0000   0.0000   0.0000   0.0000   0.0000   0.0000
     0.0000   0.0000

          k = 0.0000 0.4781 0.0000 ( 36507 PWs)   bands (ev):

   -85.2623 -85.0956 -85.0805 -84.9439 -51.2974 -51.2602 -51.2304 -51.2291
   -51.2237 -51.1807 -51.1116 -51.0104 -50.9857 -50.9263 -50.8960 -50.7767
   -44.7641 -16.9371 -16.8148 -16.7892 -16.2057 -16.0576 -15.9990 -15.8837
   -13.9030 -13.7978 -13.7454 -13.6642 -13.6051 -13.5774 -13.5387 -13.5128
   -13.4664 -13.4157 -13.3545 -13.3359  -4.2187  -3.7111  -3.6064  -3.2678
    -2.1602  -2.0300  -1.9024  -1.6703  -1.5502  -1.4533  -1.3330  -1.1703
    -1.1154  -0.9543  -0.9061  -0.6672  -0.2271  -0.1604   0.0410   0.2046
     0.2446   0.3634   0.4927   0.5463   0.6402   0.8532   0.9595   1.0439
     1.1649   1.2116   1.2943   1.3322   1.3832   1.5052   1.5972   1.7652
     1.8376   1.9279   2.0246   2.0687   2.1757   2.3533   2.4175   2.4783
     2.6038   2.6252   2.7080   2.7946   2.8605   2.9142   3.0298   3.0852
     3.2653   3.3081   3.4053   3.5653   3.5904   3.7236   3.8439   3.8678
     3.9998   4.0415   4.1285   4.2013   4.4381   4.6262   4.9066   4.9518
     9.5572  11.1763  11.3725  11.6765  12.2124  12.7056  13.0077  13.2126
    13.3649  13.4806

     occupation numbers 
     1.0000   1.0000   1.0000   1.0000   1.0000   1.0000   1.0000   1.0000
     1.0000   1.0000   1.0000   1.0000   1.0000   1.0000   1.0000   1.0000
     1.0000   1.0000   1.0000   1.0000   1.0000   1.0000   1.0000   1.0000
     1.0000   1.0000   1.0000   1.0000   1.0000   1.0000   1.0000   1.0000
     1.0000   1.0000   1.0000   1.0000   1.0000   1.0000   1.0000   1.0000
     1.0000   1.0000   1.0000   1.0000   1.0000   1.0000   1.0000   1.0000
     1.0000   1.0000   1.0000   1.0000   1.0000   1.0000   1.0000   1.0000
     1.0000   1.0000   1.0000   1.0000   1.0000   1.0000   1.0000   1.0000
     1.0000   1.0000   1.0000   1.0000   1.0000   1.0000   1.0000   1.0000
     1.0000   1.0000   1.0000   1.0000   1.0000   1.0000   1.0000   1.0000
     1.0000   1.0000   1.0000   1.0000   1.0000   1.0000   1.0000   1.0000
     1.0000   1.0000   1.0000   1.0000   1.0000   1.0000   1.0000   1.0000
     1.0000   1.0000   1.0000   1.0000   1.0000   1.0000   1.0000   1.0000
     0.0000   0.0000   0.0000   0.0000   0.0000   0.0000   0.0000   0.0000
     0.0000   0.0000

          k = 0.0000 0.4781 0.2337 ( 36461 PWs)   bands (ev):

   -85.2623 -85.0956 -85.0805 -84.9439 -51.2974 -51.2602 -51.2304 -51.2290
   -51.2237 -51.1807 -51.1116 -51.0104 -50.9857 -50.9263 -50.8960 -50.7767
   -44.7641 -16.9396 -16.8176 -16.7914 -16.1758 -16.0540 -15.9888 -15.8935
[...]
     atom   13 type  3   force =    -0.00146959   -0.00054022   -0.00109394
     atom   14 type  3   force =    -0.00267116   -0.00002860   -0.00040978
     atom   15 type  3   force =    -0.00018275   -0.00068257   -0.00298347
     atom   16 type  3   force =    -0.00553119   -0.00018279    0.00214177
     atom   17 type  3   force =    -0.00022396    0.00159168   -0.00222913
     atom   18 type  3   force =     0.00187305   -0.00265327   -0.00237254
     atom   19 type  3   force =    -0.00249569   -0.00042092    0.00308262
     atom   20 type  3   force =    -0.00055940    0.00068140   -0.00168687
     atom   21 type  3   force =    -0.00036940    0.00141692   -0.00082931
     atom   22 type  3   force =    -0.00109496    0.00019222   -0.00210822
     atom   23 type  3   force =    -0.00250626    0.00083498   -0.00173396
     atom   24 type  3   force =    -0.00057356    0.00036429   -0.00195204
     atom   25 type  3   force =    -0.00442868    0.00050343    0.00494516
     The non-local contrib.  to forces
     atom    1 type  2   force =     0.08655323    0.07417286   -0.04354258
     atom    2 type  1   force =    -0.05897162    0.15014757    0.13933456
     atom    3 type  1   force =     0.12267420    0.17338731   -0.18343730
     atom    4 type  1   force =    -0.12853016   -0.17689185   -0.03712939
     atom    5 type  1   force =     0.02747254   -0.10326477   -0.19096949
     atom    6 type  4   force =     0.00380487   -0.02520964   -0.03688040
     atom    7 type  4   force =     0.01382374   -0.05059795    0.03440995
     atom    8 type  4   force =     0.00887963   -0.01396582    0.03902131
     atom    9 type  4   force =    -0.04800293    0.02079979    0.04293532
     atom   10 type  3   force =    -0.05383166   -0.24623117   -1.38572530
     atom   11 type  3   force =     0.57858929    0.03673251   -1.31767216
     atom   12 type  3   force =    -0.26855167    0.10831677    1.48406337
     atom   13 type  3   force =     0.26443761   -0.14029248    1.48150731
     atom   14 type  3   force =     1.14882004   -0.10450645   -0.47314180
     atom   15 type  3   force =    -1.26751539   -0.11085845   -0.88304624
     atom   16 type  3   force =    -1.29500468    0.70329061    0.07329359
     atom   17 type  3   force =     1.23996047    0.10509394    0.34503415
     atom   18 type  3   force =    -0.45452537   -0.78818271    1.15742574
     atom   19 type  3   force =     0.59116207    1.40968464    0.49516411
     atom   20 type  3   force =     0.58022135   -1.18638100   -0.70728228
     atom   21 type  3   force =    -0.44197747    1.08579550   -1.00932790
     atom   22 type  3   force =     0.40566848    1.09140641   -0.78835870
     atom   23 type  3   force =    -0.52920298   -1.19891361   -0.69231101
     atom   24 type  3   force =    -0.31270159    0.89526565    0.73026337
     atom   25 type  3   force =    -0.17024677   -1.51143626    1.20765623
     The ionic contribution  to forces
     atom    1 type  2   force =     3.08971829   -1.13348892    2.78582800
     atom    2 type  1   force =    -7.20373665   10.60834274   -0.73326637
     atom    3 type  1   force =   -11.00059411   -1.54948900   -2.97699008
     atom    4 type  1   force =     1.72652467   -1.95447575    2.63619750
     atom    5 type  1   force =     8.93676218   -1.88772484   -1.76074069
     atom    6 type  4   force =    -3.54451822    0.95659419    0.40752164
     atom    7 type  4   force =     2.81880682   -2.38186480   -1.50812415
     atom    8 type  4   force =     3.77986654    0.22293672   -0.48379612
     atom    9 type  4   force =    -0.48186713   -0.19352923    0.09378611
     atom   10 type  3   force =    -8.52584833    4.65575818    2.61057611
     atom   11 type  3   force =    -0.52798746   -5.18073436    3.10186743
     atom   12 type  3   force =     9.33741997   -0.28227248   -2.66422317
     atom   13 type  3   force =    -6.93192211    0.29477905   -2.14394560
     atom   14 type  3   force =     1.13180541    1.58746960    4.02948967
     atom   15 type  3   force =    -1.26147088    0.09743007    9.38448932
     atom   16 type  3   force =     0.22162314   -3.13573915   -4.75395622
     atom   17 type  3   force =     2.79143779   -0.46358067   -4.66790224
     atom   18 type  3   force =    -3.90405169   -1.88233441   -7.33081969
     atom   19 type  3   force =     1.48085943   -8.53452692    3.65464886
     atom   20 type  3   force =     4.73639991    4.32178560    1.71297737
     atom   21 type  3   force =    -1.25655106   -0.81876600    6.01081315
     atom   22 type  3   force =     6.06547113   -3.54453033    2.99367473
     atom   23 type  3   force =     0.06989990    3.90881461    1.21966724
     atom   24 type  3   force =    -7.51913120    1.31100454   -1.75750471
     atom   25 type  3   force =     5.97108366    4.97814159   -9.86026808
     The local contribution  to forces
     atom    1 type  2   force =    -3.15181779    1.06680413   -2.73165744
     atom    2 type  1   force =     7.26062513  -10.75678666    0.59516898
     atom    3 type  1   force =    10.88007074    1.37553839    3.15287257
     atom    4 type  1   force =    -1.59662497    2.12950354   -2.60024040
     atom    5 type  1   force =    -8.96314769    1.98805187    1.95020282
     atom    6 type  4   force =     3.53967630   -0.93172695   -0.37578040
     atom    7 type  4   force =    -2.83295889    2.42448028    1.47970932
     atom    8 type  4   force =    -3.78740342   -0.21128761    0.44689132
     atom    9 type  4   force =     0.52879456    0.17365000   -0.13457524
     atom   10 type  3   force =     8.57937604   -4.41266295   -1.23656090
     atom   11 type  3   force =    -0.04975679    5.14423780   -1.79193723
     atom   12 type  3   force =    -9.07265031    0.17426662    1.19108998
     atom   13 type  3   force =     6.66895116   -0.15633392    0.67419885
     atom   14 type  3   force =    -2.27366177   -1.48421839   -3.56151972
     atom   15 type  3   force =     2.51797644    0.01168655   -8.51292483
     atom   16 type  3   force =     1.05690625    2.43871316    4.68392090
     atom   17 type  3   force =    -4.02116914    0.36105390    4.32404593
     atom   18 type  3   force =     4.35646817    2.66141290    6.18170950
     atom   19 type  3   force =    -2.06983790    7.13733191   -4.14262973
     atom   20 type  3   force =    -5.31217855   -3.14503003   -1.01376814
     atom   21 type  3   force =     1.69436366   -0.25644386   -5.01168097
     atom   22 type  3   force =    -6.46883049    2.46271617   -2.21460435
     atom   23 type  3   force =     0.45227543   -2.71970604   -0.53524041
     atom   24 type  3   force =     7.82857375   -2.19819792    1.03186543
     atom   25 type  3   force =    -5.80704233   -3.47941620    8.66870519
     The core correction contribution to forces
     atom    1 type  2   force =     0.00000000    0.00000000    0.00000000
     atom    2 type  1   force =    -0.00040997    0.00068450    0.00041515
     atom    3 type  1   force =    -0.00088645   -0.00153272    0.00244904
     atom    4 type  1   force =     0.00211585    0.00150502    0.00051905
     atom    5 type  1   force =    -0.00038435    0.00092657    0.00010816
     atom    6 type  4   force =    -0.00047974    0.00159750    0.00223579
     atom    7 type  4   force =    -0.00266530    0.00353669   -0.00183071
     atom    8 type  4   force =    -0.00104922    0.00081206   -0.00245406
     atom    9 type  4   force =     0.00310629   -0.00114178   -0.00333292
     atom   10 type  3   force =    -0.00012249    0.00247873    0.01210632
     atom   11 type  3   force =    -0.00468526   -0.00046683    0.01159199
     atom   12 type  3   force =     0.00305059   -0.00099965   -0.01281903
     atom   13 type  3   force =    -0.00294459    0.00130623   -0.01285113
     atom   14 type  3   force =    -0.00963429    0.00122655    0.00476133
     atom   15 type  3   force =     0.01083139    0.00105862    0.00849561
     atom   16 type  3   force =     0.01094132   -0.00644722   -0.00111704
     atom   17 type  3   force =    -0.01044370   -0.00097639   -0.00340989
     atom   18 type  3   force =     0.00398364    0.00645390   -0.01068781
     atom   19 type  3   force =    -0.00468188   -0.01290878   -0.00410267
     atom   20 type  3   force =    -0.00500094    0.01030040    0.00638732
     atom   21 type  3   force =     0.00379178   -0.00917167    0.00936320
     atom   22 type  3   force =    -0.00340245   -0.00939365    0.00718208
     atom   23 type  3   force =     0.00451612    0.01064262    0.00614517
     atom   24 type  3   force =     0.00268665   -0.00771156   -0.00657529
     atom   25 type  3   force =     0.00177563    0.01321168   -0.01115034
     The Hubbard contrib.    to forces
     atom    1 type  2   force =     0.00000000    0.00000000    0.00000000
     atom    2 type  1   force =     0.00000000    0.00000000    0.00000000
     atom    3 type  1   force =     0.00000000    0.00000000    0.00000000
     atom    4 type  1   force =     0.00000000    0.00000000    0.00000000
     atom    5 type  1   force =     0.00000000    0.00000000    0.00000000
     atom    6 type  4   force =     0.00000000    0.00000000    0.00000000
     atom    7 type  4   force =     0.00000000    0.00000000    0.00000000
     atom    8 type  4   force =     0.00000000    0.00000000    0.00000000
     atom    9 type  4   force =     0.00000000    0.00000000    0.00000000
     atom   10 type  3   force =     0.00000000    0.00000000    0.00000000
     atom   11 type  3   force =     0.00000000    0.00000000    0.00000000
     atom   12 type  3   force =     0.00000000    0.00000000    0.00000000
     atom   13 type  3   force =     0.00000000    0.00000000    0.00000000
     atom   14 type  3   force =     0.00000000    0.00000000    0.00000000
     atom   15 type  3   force =     0.00000000    0.00000000    0.00000000
     atom   16 type  3   force =     0.00000000    0.00000000    0.00000000
     atom   17 type  3   force =     0.00000000    0.00000000    0.00000000
     atom   18 type  3   force =     0.00000000    0.00000000    0.00000000
     atom   19 type  3   force =     0.00000000    0.00000000    0.00000000
     atom   20 type  3   force =     0.00000000    0.00000000    0.00000000
     atom   21 type  3   force =     0.00000000    0.00000000    0.00000000
     atom   22 type  3   force =     0.00000000    0.00000000    0.00000000
     atom   23 type  3   force =     0.00000000    0.00000000    0.00000000
     atom   24 type  3   force =     0.00000000    0.00000000    0.00000000
     atom   25 type  3   force =     0.00000000    0.00000000    0.00000000
     The SCF correction term to forces
     atom    1 type  2   force =     0.00000373   -0.00000180   -0.00000015
     atom    2 type  1   force =    -0.00000034    0.00000385    0.00000172
     atom    3 type  1   force =    -0.00000369    0.00000123   -0.00000168
     atom    4 type  1   force =     0.00000404   -0.00000198    0.00000086
     atom    5 type  1   force =     0.00000154   -0.00000030   -0.00000137
     atom    6 type  4   force =    -0.00000240   -0.00000009    0.00000030
     atom    7 type  4   force =     0.00000175    0.00000066    0.00000040
     atom    8 type  4   force =    -0.00000244   -0.00000036   -0.00000067
     atom    9 type  4   force =     0.00000321    0.00000056    0.00000063
     atom   10 type  3   force =    -0.00000063   -0.00000081    0.00000182
     atom   11 type  3   force =     0.00000157    0.00000215   -0.00000102
     atom   12 type  3   force =    -0.00000183   -0.00000045   -0.00000002
     atom   13 type  3   force =     0.00000832    0.00000056   -0.00000442
     atom   14 type  3   force =    -0.00000056   -0.00000025   -0.00000032
     atom   15 type  3   force =    -0.00000432    0.00000030    0.00000161
     atom   16 type  3   force =     0.00000276   -0.00000054   -0.00000051
     atom   17 type  3   force =    -0.00000939    0.00000056    0.00000186
     atom   18 type  3   force =    -0.00000170   -0.00000329   -0.00000133
     atom   19 type  3   force =     0.00000258   -0.00000212    0.00000099
     atom   20 type  3   force =    -0.00000119    0.00000609   -0.00000219
     atom   21 type  3   force =     0.00000368    0.00000260    0.00000216
     atom   22 type  3   force =    -0.00000164   -0.00000673   -0.00000303
     atom   23 type  3   force =     0.00000526   -0.00000295    0.00000399
     atom   24 type  3   force =    -0.00000118    0.00000324   -0.00000190
     atom   25 type  3   force =     0.00000111    0.00000227    0.00000111

     Total force =     0.033173     Total SCF correction =     0.000024


     Computing stress (Cartesian axis) and pressure


     negative rho (up, down):  0.000E+00 8.658E-04
          total   stress  (Ry/bohr**3)                   (kbar)     P=        8.90
  -0.00012684  -0.00003552  -0.00010576          -18.66       -5.23      -15.56
  -0.00003552   0.00015599   0.00019616           -5.23       22.95       28.86
  -0.00010576   0.00019616   0.00015241          -15.56       28.86       22.42

     kinetic stress (kbar)  26502.69     35.77     -9.50
                               35.77  26624.17     37.13
                               -9.50     37.13  26592.76

     local   stress (kbar)  -6840.82   3471.78   4614.68
                             3471.78 -15491.93   -903.19
                             4614.68   -903.19  -4999.99

     nonloc. stress (kbar)  -6770.61     15.83     11.78
                               15.83  -6744.42     -5.18
                               11.78     -5.18  -6734.90

     hartree stress (kbar)  13706.56  -1308.65  -1958.39
                            -1308.65  18141.74    337.38
                            -1958.39    337.38  13504.59

     exc-cor stress (kbar)  -2803.14     -2.76     -1.57
                               -2.76  -2807.82      0.46
                               -1.57      0.46  -2808.29

     corecor stress (kbar)  -3116.23      0.03      0.15
                                0.03  -3114.39     -0.26
                                0.15     -0.26  -3116.39

     ewald   stress (kbar) -20697.11  -2217.23  -2672.71
                            -2217.23 -16584.40    562.51
                            -2672.71    562.51 -22415.36

     hubbard stress (kbar)      0.00      0.00      0.00
                                0.00      0.00      0.00
                                0.00      0.00      0.00

     DFT-D   stress (kbar)      0.00      0.00      0.00
                                0.00      0.00      0.00
                                0.00      0.00      0.00

     XDM     stress (kbar)      0.00      0.00      0.00
                                0.00      0.00      0.00
                                0.00      0.00      0.00

     dft-nl  stress (kbar)      0.00      0.00      0.00
                                0.00      0.00      0.00
                                0.00      0.00      0.00

     TS-vdW  stress (kbar)      0.00      0.00      0.00
                                0.00      0.00      0.00
                                0.00      0.00      0.00



     init_run     :     82.93s CPU     84.74s WALL (       1 calls)
     electrons    :   6662.15s CPU   6763.02s WALL (       1 calls)
     forces       :     39.47s CPU     40.15s WALL (       1 calls)
     stress       :    444.76s CPU    446.51s WALL (       1 calls)

     Called by init_run:
     wfcinit      :     76.18s CPU     77.71s WALL (       1 calls)
     wfcinit:atom :      1.77s CPU      1.80s WALL (     316 calls)
     wfcinit:wfcr :     67.97s CPU     69.41s WALL (     316 calls)
     potinit      :      2.41s CPU      2.48s WALL (       1 calls)
     hinit0       :      2.40s CPU      2.45s WALL (       1 calls)

     Called by electrons:
     c_bands      :   5751.53s CPU   5825.92s WALL (      33 calls)
     sum_band     :    828.25s CPU    849.65s WALL (      33 calls)
     v_of_rho     :     17.97s CPU     18.59s WALL (      34 calls)
     v_h          :      0.80s CPU      0.85s WALL (      34 calls)
     v_xc         :     18.17s CPU     18.77s WALL (      36 calls)
     newd         :     44.90s CPU     49.22s WALL (      34 calls)
     PAW_pot      :     16.30s CPU     16.36s WALL (      34 calls)
     mix_rho      :      3.64s CPU      3.81s WALL (      33 calls)

     Called by c_bands:
     init_us_2    :    131.97s CPU    134.08s WALL (   21804 calls)
     cegterg      :   5491.95s CPU   5563.38s WALL (   10428 calls)

     Called by sum_band:
     sum_band:wei :      0.29s CPU      0.29s WALL (      33 calls)
     sum_band:loo :    745.39s CPU    758.14s WALL (      33 calls)
     sum_band:buf :     31.83s CPU     32.22s WALL (   10428 calls)
     sum_band:ini :     65.07s CPU     66.03s WALL (   10428 calls)
     sum_band:cal :    188.96s CPU    193.33s WALL (   10428 calls)
     sum_band:bec :      1.53s CPU      1.56s WALL (   10428 calls)
     addusdens    :     79.96s CPU     88.49s WALL (      33 calls)
     addusd:skk   :      0.58s CPU      0.60s WALL (      99 calls)
     addusd:dgemm :     20.80s CPU     28.68s WALL (     198 calls)
     addusd:qvan2 :     57.71s CPU     58.18s WALL (     198 calls)

     Called by *egterg:
     cdiaghg      :    285.01s CPU    290.05s WALL (   37426 calls)
     cegterg:over :    414.91s CPU    421.86s WALL (   26998 calls)
     cegterg:upda :    347.55s CPU    350.50s WALL (   26998 calls)
     cegterg:last :    608.46s CPU    613.28s WALL (   18524 calls)
     h_psi        :   2954.85s CPU   2999.05s WALL (   37742 calls)
     s_psi        :    620.09s CPU    624.72s WALL (   37742 calls)
     g_psi        :     25.25s CPU     25.64s WALL (   26998 calls)

     Called by h_psi:
     h_psi:calbec :    484.30s CPU    494.58s WALL (   37742 calls)
     vloc_psi     :   1741.85s CPU   1769.57s WALL (   37742 calls)
     add_vuspsi   :    659.91s CPU    665.11s WALL (   37742 calls)

     General routines
     calbec       :    703.71s CPU    718.95s WALL (   49750 calls)
     fft          :     14.14s CPU     15.09s WALL (     888 calls)
     ffts         :      0.14s CPU      0.16s WALL (     134 calls)
     fftw         :   1875.41s CPU   1904.71s WALL ( 6594866 calls)
     interpolate  :      1.30s CPU      1.38s WALL (      68 calls)

     Parallel routines
     fft_scatt_xy :    268.93s CPU    273.04s WALL ( 6595888 calls)
     fft_scatt_yz :    472.31s CPU    481.11s WALL ( 6595888 calls)

     PAW routines
     PAW_pot      :     16.30s CPU     16.36s WALL (      34 calls)

     PWSCF        :      2h 0m CPU      2h 2m WALL


   This run was terminated on:   3:57:45  14Mar2023            

=------------------------------------------------------------------------------=
   JOB DONE.
=------------------------------------------------------------------------------=
Note: The following floating-point exceptions are signalling: IEEE_UNDERFLOW_FLAG IEEE_DENORMAL
Note: The following floating-point exceptions are signalling: IEEE_DENORMAL
Note: The following floating-point exceptions are signalling: IEEE_DENORMAL
Note: The following floating-point exceptions are signalling: IEEE_DENORMAL
Note: The following floating-point exceptions are signalling: IEEE_DENORMAL
Note: The following floating-point exceptions are signalling: IEEE_DENORMAL
Note: The following floating-point exceptions are signalling: IEEE_DENORMAL
Note: The following floating-point exceptions are signalling: IEEE_DENORMAL
Note: The following floating-point exceptions are signalling: IEEE_DENORMAL
Note: The following floating-point exceptions are signalling: IEEE_DENORMAL
Note: The following floating-point exceptions are signalling: IEEE_DENORMAL
Note: The following floating-point exceptions are signalling: IEEE_DENORMAL
Note: The following floating-point exceptions are signalling: IEEE_DENORMAL
Note: The following floating-point exceptions are signalling: IEEE_DENORMAL
